 243 243   0   0
  0.1311304E+02  0.1499160E-08  0.1499160E-08  0.1637130E-08  0.5000000E-15
   4000.00000000000     
  CAR 
 (Si O2)81  (P1) ~ 3x3x3Supersel (VASP)  
     11.71026642    -21.03406602  301      2.99208791      1.00000000
    -21.034  0.0000E+00  0.0000E+00
    -20.925  0.0000E+00  0.0000E+00
    -20.816  0.0000E+00  0.0000E+00
    -20.707  0.0000E+00  0.0000E+00
    -20.597  0.0000E+00  0.0000E+00
    -20.488  0.0000E+00  0.0000E+00
    -20.379  0.0000E+00  0.0000E+00
    -20.270  0.0000E+00  0.0000E+00
    -20.161  0.0000E+00  0.0000E+00
    -20.052  0.0000E+00  0.0000E+00
    -19.943  0.0000E+00  0.0000E+00
    -19.833  0.2019E-14  0.2215E-15
    -19.724  0.2966E-05  0.3268E-06
    -19.615  0.4298E+00  0.4747E-01
    -19.506  0.1686E+02  0.1910E+01
    -19.397  0.7992E+01  0.2788E+01
    -19.288  0.7912E+01  0.3656E+01
    -19.179  0.9856E+01  0.4738E+01
    -19.069  0.1204E+02  0.6060E+01
    -18.960  0.1498E+02  0.7705E+01
    -18.851  0.1754E+02  0.9634E+01
    -18.742  0.2031E+02  0.1187E+02
    -18.633  0.2433E+02  0.1454E+02
    -18.524  0.2718E+02  0.1754E+02
    -18.415  0.3202E+02  0.2106E+02
    -18.305  0.3570E+02  0.2500E+02
    -18.196  0.4027E+02  0.2943E+02
    -18.087  0.4363E+02  0.3424E+02
    -17.978  0.4732E+02  0.3946E+02
    -17.869  0.5070E+02  0.4505E+02
    -17.760  0.5359E+02  0.5096E+02
    -17.650  0.5762E+02  0.5732E+02
    -17.541  0.6122E+02  0.6408E+02
    -17.432  0.6337E+02  0.7107E+02
    -17.323  0.6618E+02  0.7838E+02
    -17.214  0.6923E+02  0.8603E+02
    -17.105  0.7127E+02  0.9390E+02
    -16.996  0.7270E+02  0.1019E+03
    -16.886  0.7487E+02  0.1102E+03
    -16.777  0.7658E+02  0.1187E+03
    -16.668  0.7978E+02  0.1275E+03
    -16.559  0.8194E+02  0.1365E+03
    -16.450  0.8426E+02  0.1458E+03
    -16.341  0.8726E+02  0.1555E+03
    -16.232  0.8704E+02  0.1651E+03
    -16.122  0.8637E+02  0.1746E+03
    -16.013  0.8557E+02  0.1841E+03
    -15.904  0.8443E+02  0.1934E+03
    -15.795  0.8482E+02  0.2028E+03
    -15.686  0.8446E+02  0.2122E+03
    -15.577  0.8231E+02  0.2213E+03
    -15.468  0.8001E+02  0.2301E+03
    -15.358  0.7851E+02  0.2388E+03
    -15.249  0.7735E+02  0.2474E+03
    -15.140  0.7310E+02  0.2555E+03
    -15.031  0.6813E+02  0.2630E+03
    -14.922  0.6395E+02  0.2701E+03
    -14.813  0.5903E+02  0.2766E+03
    -14.703  0.5409E+02  0.2826E+03
    -14.594  0.4742E+02  0.2879E+03
    -14.485  0.4221E+02  0.2926E+03
    -14.376  0.4105E+02  0.2971E+03
    -14.267  0.3788E+02  0.3013E+03
    -14.158  0.3374E+02  0.3051E+03
    -14.049  0.2947E+02  0.3083E+03
    -13.939  0.2557E+02  0.3112E+03
    -13.830  0.2028E+02  0.3134E+03
    -13.721  0.1703E+02  0.3153E+03
    -13.612  0.1442E+02  0.3169E+03
    -13.503  0.1287E+02  0.3183E+03
    -13.394  0.1080E+02  0.3195E+03
    -13.285  0.8931E+01  0.3205E+03
    -13.175  0.7200E+01  0.3213E+03
    -13.066  0.6055E+01  0.3220E+03
    -12.957  0.4789E+01  0.3225E+03
    -12.848  0.3650E+01  0.3230E+03
    -12.739  0.2529E+01  0.3232E+03
    -12.630  0.2058E+01  0.3235E+03
    -12.521  0.1574E+01  0.3236E+03
    -12.411  0.1281E+01  0.3238E+03
    -12.302  0.6816E+00  0.3239E+03
    -12.193  0.3578E+00  0.3239E+03
    -12.084  0.3579E+00  0.3239E+03
    -11.975  0.2660E+00  0.3240E+03
    -11.866  0.4261E-01  0.3240E+03
    -11.757  0.3415E-01  0.3240E+03
    -11.647  0.3922E-01  0.3240E+03
    -11.538  0.6160E-01  0.3240E+03
    -11.429  0.7502E-01  0.3240E+03
    -11.320  0.1838E-02  0.3240E+03
    -11.211  0.1297E-07  0.3240E+03
    -11.102  0.0000E+00  0.3240E+03
    -10.992  0.0000E+00  0.3240E+03
    -10.883  0.0000E+00  0.3240E+03
    -10.774  0.0000E+00  0.3240E+03
    -10.665  0.0000E+00  0.3240E+03
    -10.556  0.0000E+00  0.3240E+03
    -10.447  0.0000E+00  0.3240E+03
    -10.338  0.0000E+00  0.3240E+03
    -10.228  0.0000E+00  0.3240E+03
    -10.119  0.0000E+00  0.3240E+03
    -10.010  0.0000E+00  0.3240E+03
     -9.901  0.0000E+00  0.3240E+03
     -9.792  0.0000E+00  0.3240E+03
     -9.683  0.0000E+00  0.3240E+03
     -9.574  0.0000E+00  0.3240E+03
     -9.464  0.0000E+00  0.3240E+03
     -9.355  0.2486E-14  0.3240E+03
     -9.246  0.3099E-06  0.3240E+03
     -9.137  0.4984E-02  0.3240E+03
     -9.028  0.1830E+00  0.3240E+03
     -8.919  0.1054E+01  0.3241E+03
     -8.810  0.1507E+01  0.3243E+03
     -8.700  0.3141E+01  0.3246E+03
     -8.591  0.4708E+01  0.3252E+03
     -8.482  0.7260E+01  0.3260E+03
     -8.373  0.9786E+01  0.3270E+03
     -8.264  0.1218E+02  0.3284E+03
     -8.155  0.1429E+02  0.3300E+03
     -8.045  0.1720E+02  0.3319E+03
     -7.936  0.1953E+02  0.3340E+03
     -7.827  0.2210E+02  0.3364E+03
     -7.718  0.2551E+02  0.3393E+03
     -7.609  0.2820E+02  0.3424E+03
     -7.500  0.3012E+02  0.3457E+03
     -7.391  0.3222E+02  0.3493E+03
     -7.281  0.3428E+02  0.3530E+03
     -7.172  0.3651E+02  0.3571E+03
     -7.063  0.3664E+02  0.3611E+03
     -6.954  0.3620E+02  0.3651E+03
     -6.845  0.3804E+02  0.3693E+03
     -6.736  0.3862E+02  0.3736E+03
     -6.627  0.3950E+02  0.3780E+03
     -6.517  0.3948E+02  0.3823E+03
     -6.408  0.4031E+02  0.3868E+03
     -6.299  0.4137E+02  0.3914E+03
     -6.190  0.4197E+02  0.3960E+03
     -6.081  0.4323E+02  0.4008E+03
     -5.972  0.4389E+02  0.4056E+03
     -5.863  0.4589E+02  0.4107E+03
     -5.753  0.4698E+02  0.4159E+03
     -5.644  0.4760E+02  0.4211E+03
     -5.535  0.4850E+02  0.4265E+03
     -5.426  0.5088E+02  0.4321E+03
     -5.317  0.5112E+02  0.4378E+03
     -5.208  0.5209E+02  0.4435E+03
     -5.098  0.5427E+02  0.4495E+03
     -4.989  0.5681E+02  0.4558E+03
     -4.880  0.6042E+02  0.4625E+03
     -4.771  0.6190E+02  0.4693E+03
     -4.662  0.6504E+02  0.4765E+03
     -4.553  0.6721E+02  0.4839E+03
     -4.444  0.7101E+02  0.4918E+03
     -4.334  0.7396E+02  0.5000E+03
     -4.225  0.7706E+02  0.5085E+03
     -4.116  0.7905E+02  0.5172E+03
     -4.007  0.8073E+02  0.5261E+03
     -3.898  0.8280E+02  0.5353E+03
     -3.789  0.8506E+02  0.5447E+03
     -3.680  0.8606E+02  0.5542E+03
     -3.570  0.8631E+02  0.5637E+03
     -3.461  0.8783E+02  0.5735E+03
     -3.352  0.8908E+02  0.5833E+03
     -3.243  0.8977E+02  0.5932E+03
     -3.134  0.9110E+02  0.6033E+03
     -3.025  0.9123E+02  0.6134E+03
     -2.916  0.9343E+02  0.6237E+03
     -2.806  0.9627E+02  0.6344E+03
     -2.697  0.9807E+02  0.6452E+03
     -2.588  0.1016E+03  0.6564E+03
     -2.479  0.1050E+03  0.6680E+03
     -2.370  0.1088E+03  0.6801E+03
     -2.261  0.1136E+03  0.6926E+03
     -2.152  0.1181E+03  0.7057E+03
     -2.042  0.1224E+03  0.7192E+03
     -1.933  0.1265E+03  0.7332E+03
     -1.824  0.1311E+03  0.7477E+03
     -1.715  0.1346E+03  0.7625E+03
     -1.606  0.1383E+03  0.7778E+03
     -1.497  0.1407E+03  0.7934E+03
     -1.387  0.1440E+03  0.8093E+03
     -1.278  0.1468E+03  0.8255E+03
     -1.169  0.1493E+03  0.8420E+03
     -1.060  0.1509E+03  0.8587E+03
     -0.951  0.1535E+03  0.8757E+03
     -0.842  0.1550E+03  0.8928E+03
     -0.733  0.1543E+03  0.9099E+03
     -0.623  0.1574E+03  0.9273E+03
     -0.514  0.1570E+03  0.9446E+03
     -0.405  0.1581E+03  0.9621E+03
     -0.296  0.1582E+03  0.9796E+03
     -0.187  0.1578E+03  0.9970E+03
     -0.078  0.1597E+03  0.1015E+04
      0.031  0.1585E+03  0.1032E+04
      0.141  0.1560E+03  0.1049E+04
      0.250  0.1563E+03  0.1067E+04
      0.359  0.1534E+03  0.1084E+04
      0.468  0.1512E+03  0.1100E+04
      0.577  0.1474E+03  0.1117E+04
      0.686  0.1434E+03  0.1133E+04
      0.795  0.1384E+03  0.1148E+04
      0.905  0.1343E+03  0.1163E+04
      1.014  0.1269E+03  0.1177E+04
      1.123  0.1212E+03  0.1190E+04
      1.232  0.1153E+03  0.1203E+04
      1.341  0.1088E+03  0.1215E+04
      1.450  0.1020E+03  0.1226E+04
      1.560  0.9309E+02  0.1237E+04
      1.669  0.8336E+02  0.1246E+04
      1.778  0.7566E+02  0.1254E+04
      1.887  0.6712E+02  0.1262E+04
      1.996  0.5832E+02  0.1268E+04
      2.105  0.4962E+02  0.1274E+04
      2.214  0.4056E+02  0.1278E+04
      2.324  0.3504E+02  0.1282E+04
      2.433  0.2785E+02  0.1285E+04
      2.542  0.2373E+02  0.1288E+04
      2.651  0.1859E+02  0.1290E+04
      2.760  0.1529E+02  0.1291E+04
      2.869  0.1152E+02  0.1293E+04
      2.978  0.8487E+01  0.1294E+04
      3.088  0.5718E+01  0.1294E+04
      3.197  0.4951E+01  0.1295E+04
      3.306  0.3856E+01  0.1295E+04
      3.415  0.2916E+01  0.1296E+04
      3.524  0.2140E+01  0.1296E+04
      3.633  0.2113E+01  0.1296E+04
      3.742  0.1898E+01  0.1296E+04
      3.852  0.1952E+01  0.1296E+04
      3.961  0.1620E+01  0.1297E+04
      4.070  0.1735E+01  0.1297E+04
      4.179  0.2383E+01  0.1297E+04
      4.288  0.3256E+01  0.1297E+04
      4.397  0.4220E+01  0.1298E+04
      4.507  0.4712E+01  0.1298E+04
      4.616  0.5767E+01  0.1299E+04
      4.725  0.6187E+01  0.1300E+04
      4.834  0.7292E+01  0.1301E+04
      4.943  0.8193E+01  0.1301E+04
      5.052  0.9599E+01  0.1303E+04
      5.161  0.1042E+02  0.1304E+04
      5.271  0.1300E+02  0.1305E+04
      5.380  0.1389E+02  0.1307E+04
      5.489  0.1511E+02  0.1308E+04
      5.598  0.1724E+02  0.1310E+04
      5.707  0.1939E+02  0.1312E+04
      5.816  0.2202E+02  0.1315E+04
      5.925  0.2366E+02  0.1317E+04
      6.035  0.2411E+02  0.1320E+04
      6.144  0.2675E+02  0.1323E+04
      6.253  0.2904E+02  0.1326E+04
      6.362  0.3003E+02  0.1330E+04
      6.471  0.3247E+02  0.1333E+04
      6.580  0.3291E+02  0.1337E+04
      6.689  0.3366E+02  0.1340E+04
      6.799  0.3525E+02  0.1344E+04
      6.908  0.3611E+02  0.1348E+04
      7.017  0.3738E+02  0.1353E+04
      7.126  0.3912E+02  0.1357E+04
      7.235  0.4041E+02  0.1361E+04
      7.344  0.4338E+02  0.1366E+04
      7.454  0.4501E+02  0.1371E+04
      7.563  0.4658E+02  0.1376E+04
      7.672  0.4793E+02  0.1382E+04
      7.781  0.5029E+02  0.1387E+04
      7.890  0.5226E+02  0.1393E+04
      7.999  0.5522E+02  0.1399E+04
      8.108  0.5715E+02  0.1405E+04
      8.218  0.5876E+02  0.1412E+04
      8.327  0.6136E+02  0.1419E+04
      8.436  0.6352E+02  0.1426E+04
      8.545  0.6627E+02  0.1433E+04
      8.654  0.6888E+02  0.1441E+04
      8.763  0.7121E+02  0.1448E+04
      8.872  0.7275E+02  0.1456E+04
      8.982  0.7733E+02  0.1465E+04
      9.091  0.7920E+02  0.1474E+04
      9.200  0.8246E+02  0.1483E+04
      9.309  0.8368E+02  0.1492E+04
      9.418  0.8496E+02  0.1502E+04
      9.527  0.8621E+02  0.1511E+04
      9.636  0.8530E+02  0.1520E+04
      9.746  0.8439E+02  0.1530E+04
      9.855  0.8363E+02  0.1539E+04
      9.964  0.8141E+02  0.1548E+04
     10.073  0.7918E+02  0.1557E+04
     10.182  0.6979E+02  0.1565E+04
     10.291  0.3093E+02  0.1568E+04
     10.400  0.4704E+00  0.1568E+04
     10.510  0.3020E-05  0.1568E+04
     10.619  0.1528E-14  0.1568E+04
     10.728  0.0000E+00  0.1568E+04
     10.837  0.0000E+00  0.1568E+04
     10.946  0.0000E+00  0.1568E+04
     11.055  0.0000E+00  0.1568E+04
     11.165  0.0000E+00  0.1568E+04
     11.274  0.0000E+00  0.1568E+04
     11.383  0.0000E+00  0.1568E+04
     11.492  0.0000E+00  0.1568E+04
     11.601  0.0000E+00  0.1568E+04
     11.710  0.0000E+00  0.1568E+04
     11.78611101    -21.00435214  301      3.05565020      1.00000000
    -21.004  0.0000E+00  0.0000E+00
    -20.895  0.0000E+00  0.0000E+00
    -20.786  0.0000E+00  0.0000E+00
    -20.676  0.0000E+00  0.0000E+00
    -20.567  0.0000E+00  0.0000E+00
    -20.458  0.0000E+00  0.0000E+00
    -20.349  0.0000E+00  0.0000E+00
    -20.239  0.0000E+00  0.0000E+00
    -20.130  0.0000E+00  0.0000E+00
    -20.021  0.0000E+00  0.0000E+00
    -19.911  0.0000E+00  0.0000E+00
    -19.802  0.5079E-17  0.5551E-18
    -19.693  0.6570E-08  0.7181E-09
    -19.583  0.8332E-03  0.9107E-04
    -19.474  0.3072E-01  0.3449E-02
    -19.365  0.5751E-02  0.4077E-02
    -19.256  0.1893E-01  0.6146E-02
    -19.146  0.3147E-01  0.9585E-02
    -19.037  0.3951E-02  0.1002E-01
    -18.928  0.2919E-01  0.1321E-01
    -18.818  0.2773E-01  0.1624E-01
    -18.709  0.1646E-01  0.1804E-01
    -18.600  0.3749E-01  0.2214E-01
    -18.490  0.3588E-01  0.2606E-01
    -18.381  0.3687E-01  0.3009E-01
    -18.272  0.5337E-01  0.3592E-01
    -18.163  0.3864E-01  0.4014E-01
    -18.053  0.5959E-01  0.4666E-01
    -17.944  0.5559E-01  0.5273E-01
    -17.835  0.5130E-01  0.5834E-01
    -17.725  0.5373E-01  0.6421E-01
    -17.616  0.5743E-01  0.7049E-01
    -17.507  0.5841E-01  0.7687E-01
    -17.397  0.7241E-01  0.8479E-01
    -17.288  0.8039E-01  0.9357E-01
    -17.179  0.7890E-01  0.1022E+00
    -17.069  0.8998E-01  0.1120E+00
    -16.960  0.9200E-01  0.1221E+00
    -16.851  0.8921E-01  0.1318E+00
    -16.742  0.7932E-01  0.1405E+00
    -16.632  0.6272E-01  0.1474E+00
    -16.523  0.5799E-01  0.1537E+00
    -16.414  0.1091E+00  0.1656E+00
    -16.304  0.7956E-01  0.1743E+00
    -16.195  0.9256E-01  0.1844E+00
    -16.086  0.1071E+00  0.1962E+00
    -15.976  0.1110E+00  0.2083E+00
    -15.867  0.8773E-01  0.2179E+00
    -15.758  0.8772E-01  0.2275E+00
    -15.649  0.9366E-01  0.2377E+00
    -15.539  0.1219E+00  0.2510E+00
    -15.430  0.8296E-01  0.2601E+00
    -15.321  0.8325E-01  0.2692E+00
    -15.211  0.7918E-01  0.2778E+00
    -15.102  0.8998E-01  0.2877E+00
    -14.993  0.7638E-01  0.2960E+00
    -14.883  0.1865E-01  0.2981E+00
    -14.774  0.3866E-01  0.3023E+00
    -14.665  0.5386E-01  0.3082E+00
    -14.556  0.4987E-01  0.3136E+00
    -14.446  0.3425E-02  0.3140E+00
    -14.337  0.1974E-01  0.3162E+00
    -14.228  0.3494E-01  0.3200E+00
    -14.118  0.1962E-03  0.3200E+00
    -14.009  0.8289E-03  0.3201E+00
    -13.900  0.1599E-01  0.3218E+00
    -13.790  0.1480E-02  0.3220E+00
    -13.681  0.4000E-06  0.3220E+00
    -13.572  0.2745E-02  0.3223E+00
    -13.463  0.1519E-01  0.3240E+00
    -13.353  0.3646E-03  0.3240E+00
    -13.244  0.2425E-08  0.3240E+00
    -13.135  0.0000E+00  0.3240E+00
    -13.025  0.0000E+00  0.3240E+00
    -12.916  0.0000E+00  0.3240E+00
    -12.807  0.0000E+00  0.3240E+00
    -12.697  0.0000E+00  0.3240E+00
    -12.588  0.0000E+00  0.3240E+00
    -12.479  0.0000E+00  0.3240E+00
    -12.370  0.0000E+00  0.3240E+00
    -12.260  0.0000E+00  0.3240E+00
    -12.151  0.0000E+00  0.3240E+00
    -12.042  0.0000E+00  0.3240E+00
    -11.932  0.0000E+00  0.3240E+00
    -11.823  0.0000E+00  0.3240E+00
    -11.714  0.0000E+00  0.3240E+00
    -11.604  0.0000E+00  0.3240E+00
    -11.495  0.0000E+00  0.3240E+00
    -11.386  0.0000E+00  0.3240E+00
    -11.277  0.0000E+00  0.3240E+00
    -11.167  0.0000E+00  0.3240E+00
    -11.058  0.0000E+00  0.3240E+00
    -10.949  0.0000E+00  0.3240E+00
    -10.839  0.0000E+00  0.3240E+00
    -10.730  0.0000E+00  0.3240E+00
    -10.621  0.0000E+00  0.3240E+00
    -10.511  0.0000E+00  0.3240E+00
    -10.402  0.0000E+00  0.3240E+00
    -10.293  0.0000E+00  0.3240E+00
    -10.183  0.0000E+00  0.3240E+00
    -10.074  0.0000E+00  0.3240E+00
     -9.965  0.0000E+00  0.3240E+00
     -9.856  0.0000E+00  0.3240E+00
     -9.746  0.0000E+00  0.3240E+00
     -9.637  0.0000E+00  0.3240E+00
     -9.528  0.0000E+00  0.3240E+00
     -9.418  0.0000E+00  0.3240E+00
     -9.309  0.0000E+00  0.3240E+00
     -9.200  0.0000E+00  0.3240E+00
     -9.090  0.0000E+00  0.3240E+00
     -8.981  0.0000E+00  0.3240E+00
     -8.872  0.0000E+00  0.3240E+00
     -8.763  0.0000E+00  0.3240E+00
     -8.653  0.2031E-17  0.3240E+00
     -8.544  0.2505E-08  0.3240E+00
     -8.435  0.3701E-03  0.3240E+00
     -8.325  0.1521E-01  0.3257E+00
     -8.216  0.8869E-02  0.3267E+00
     -8.107  0.1284E-01  0.3281E+00
     -7.997  0.2690E-01  0.3310E+00
     -7.888  0.2817E-01  0.3341E+00
     -7.779  0.2211E-01  0.3365E+00
     -7.670  0.4888E-01  0.3419E+00
     -7.560  0.4060E-01  0.3463E+00
     -7.451  0.4079E-01  0.3508E+00
     -7.342  0.3970E-01  0.3551E+00
     -7.232  0.4447E-01  0.3600E+00
     -7.123  0.4560E-01  0.3649E+00
     -7.014  0.3797E-01  0.3691E+00
     -6.904  0.2945E-01  0.3723E+00
     -6.795  0.3498E-01  0.3761E+00
     -6.686  0.4099E-01  0.3806E+00
     -6.577  0.4062E-01  0.3850E+00
     -6.467  0.4190E-01  0.3896E+00
     -6.358  0.4264E-01  0.3943E+00
     -6.249  0.4218E-01  0.3989E+00
     -6.139  0.4866E-01  0.4042E+00
     -6.030  0.4711E-01  0.4094E+00
     -5.921  0.4328E-01  0.4141E+00
     -5.811  0.3694E-01  0.4181E+00
     -5.702  0.4864E-01  0.4235E+00
     -5.593  0.4103E-01  0.4279E+00
     -5.484  0.6134E-01  0.4346E+00
     -5.374  0.4560E-01  0.4396E+00
     -5.265  0.5485E-01  0.4456E+00
     -5.156  0.5465E-01  0.4516E+00
     -5.046  0.6758E-01  0.4590E+00
     -4.937  0.4964E-01  0.4644E+00
     -4.828  0.5335E-01  0.4702E+00
     -4.718  0.7737E-01  0.4787E+00
     -4.609  0.7042E-01  0.4864E+00
     -4.500  0.7497E-01  0.4946E+00
     -4.391  0.6362E-01  0.5015E+00
     -4.281  0.8144E-01  0.5104E+00
     -4.172  0.7838E-01  0.5190E+00
     -4.063  0.1004E+00  0.5300E+00
     -3.953  0.1083E+00  0.5418E+00
     -3.844  0.1006E+00  0.5528E+00
     -3.735  0.8044E-01  0.5616E+00
     -3.625  0.8829E-01  0.5713E+00
     -3.516  0.1031E+00  0.5825E+00
     -3.407  0.7774E-01  0.5910E+00
     -3.298  0.8606E-01  0.6004E+00
     -3.188  0.8920E-01  0.6102E+00
     -3.079  0.1027E+00  0.6214E+00
     -2.970  0.9051E-01  0.6313E+00
     -2.860  0.9055E-01  0.6412E+00
     -2.751  0.1006E+00  0.6522E+00
     -2.642  0.9010E-01  0.6620E+00
     -2.532  0.1014E+00  0.6731E+00
     -2.423  0.8767E-01  0.6827E+00
     -2.314  0.1098E+00  0.6947E+00
     -2.204  0.1206E+00  0.7079E+00
     -2.095  0.1287E+00  0.7219E+00
     -1.986  0.1344E+00  0.7366E+00
     -1.877  0.1313E+00  0.7510E+00
     -1.767  0.1175E+00  0.7638E+00
     -1.658  0.1393E+00  0.7790E+00
     -1.549  0.1513E+00  0.7956E+00
     -1.439  0.1461E+00  0.8115E+00
     -1.330  0.1506E+00  0.8280E+00
     -1.221  0.1554E+00  0.8450E+00
     -1.111  0.1504E+00  0.8614E+00
     -1.002  0.1565E+00  0.8785E+00
     -0.893  0.1529E+00  0.8953E+00
     -0.784  0.1608E+00  0.9128E+00
     -0.674  0.1588E+00  0.9302E+00
     -0.565  0.1507E+00  0.9467E+00
     -0.456  0.1528E+00  0.9634E+00
     -0.346  0.1733E+00  0.9823E+00
     -0.237  0.1713E+00  0.1001E+01
     -0.128  0.1654E+00  0.1019E+01
     -0.018  0.1582E+00  0.1036E+01
      0.091  0.1467E+00  0.1052E+01
      0.200  0.1747E+00  0.1072E+01
      0.309  0.1601E+00  0.1089E+01
      0.419  0.1491E+00  0.1105E+01
      0.528  0.1530E+00  0.1122E+01
      0.637  0.1742E+00  0.1141E+01
      0.747  0.1452E+00  0.1157E+01
      0.856  0.1559E+00  0.1174E+01
      0.965  0.1333E+00  0.1189E+01
      1.075  0.1555E+00  0.1206E+01
      1.184  0.1233E+00  0.1219E+01
      1.293  0.1159E+00  0.1232E+01
      1.402  0.1186E+00  0.1245E+01
      1.512  0.1089E+00  0.1257E+01
      1.621  0.1056E+00  0.1268E+01
      1.730  0.4274E-01  0.1273E+01
      1.840  0.2949E-01  0.1276E+01
      1.949  0.3468E-01  0.1280E+01
      2.058  0.6601E-01  0.1287E+01
      2.168  0.1071E-01  0.1288E+01
      2.277  0.3442E-01  0.1292E+01
      2.386  0.1865E-01  0.1294E+01
      2.495  0.1315E-03  0.1294E+01
      2.605  0.1016E-05  0.1294E+01
      2.714  0.4017E-02  0.1294E+01
      2.823  0.1409E-01  0.1296E+01
      2.933  0.1872E-03  0.1296E+01
      3.042  0.5786E-09  0.1296E+01
      3.151  0.0000E+00  0.1296E+01
      3.261  0.0000E+00  0.1296E+01
      3.370  0.0000E+00  0.1296E+01
      3.479  0.0000E+00  0.1296E+01
      3.588  0.0000E+00  0.1296E+01
      3.698  0.0000E+00  0.1296E+01
      3.807  0.0000E+00  0.1296E+01
      3.916  0.0000E+00  0.1296E+01
      4.026  0.0000E+00  0.1296E+01
      4.135  0.0000E+00  0.1296E+01
      4.244  0.5810E-14  0.1296E+01
      4.354  0.3760E-06  0.1296E+01
      4.463  0.2860E-02  0.1296E+01
      4.572  0.1510E-01  0.1298E+01
      4.682  0.3418E-03  0.1298E+01
      4.791  0.8512E-04  0.1298E+01
      4.900  0.1251E-01  0.1299E+01
      5.009  0.5750E-02  0.1300E+01
      5.119  0.1129E-01  0.1301E+01
      5.228  0.8018E-02  0.1302E+01
      5.337  0.1714E-01  0.1304E+01
      5.447  0.2842E-01  0.1307E+01
      5.556  0.3660E-01  0.1311E+01
      5.665  0.2273E-01  0.1314E+01
      5.775  0.2008E-01  0.1316E+01
      5.884  0.2472E-01  0.1318E+01
      5.993  0.3892E-01  0.1323E+01
      6.102  0.1968E-01  0.1325E+01
      6.212  0.2697E-01  0.1328E+01
      6.321  0.2660E-02  0.1328E+01
      6.430  0.3628E-01  0.1332E+01
      6.540  0.4410E-01  0.1337E+01
      6.649  0.3378E-01  0.1341E+01
      6.758  0.2399E-01  0.1343E+01
      6.868  0.4043E-01  0.1348E+01
      6.977  0.3386E-01  0.1351E+01
      7.086  0.4329E-01  0.1356E+01
      7.195  0.3153E-01  0.1360E+01
      7.305  0.3742E-01  0.1364E+01
      7.414  0.4693E-01  0.1369E+01
      7.523  0.3978E-01  0.1373E+01
      7.633  0.5867E-01  0.1379E+01
      7.742  0.6480E-01  0.1387E+01
      7.851  0.5130E-01  0.1392E+01
      7.961  0.5388E-01  0.1398E+01
      8.070  0.4318E-01  0.1403E+01
      8.179  0.4887E-01  0.1408E+01
      8.288  0.6039E-01  0.1415E+01
      8.398  0.5450E-01  0.1421E+01
      8.507  0.6538E-01  0.1428E+01
      8.616  0.8188E-01  0.1437E+01
      8.726  0.6504E-01  0.1444E+01
      8.835  0.8519E-01  0.1453E+01
      8.944  0.8366E-01  0.1462E+01
      9.054  0.7070E-01  0.1470E+01
      9.163  0.6934E-01  0.1478E+01
      9.272  0.8210E-01  0.1487E+01
      9.381  0.8688E-01  0.1496E+01
      9.491  0.9342E-01  0.1506E+01
      9.600  0.8470E-01  0.1516E+01
      9.709  0.7279E-01  0.1524E+01
      9.819  0.8822E-01  0.1533E+01
      9.928  0.7324E-01  0.1541E+01
     10.037  0.7718E-01  0.1550E+01
     10.147  0.9613E-01  0.1560E+01
     10.256  0.4944E-01  0.1566E+01
     10.365  0.2193E-01  0.1568E+01
     10.474  0.4533E-03  0.1568E+01
     10.584  0.3859E-08  0.1568E+01
     10.693  0.4063E-17  0.1568E+01
     10.802  0.0000E+00  0.1568E+01
     10.912  0.0000E+00  0.1568E+01
     11.021  0.0000E+00  0.1568E+01
     11.130  0.0000E+00  0.1568E+01
     11.240  0.0000E+00  0.1568E+01
     11.349  0.0000E+00  0.1568E+01
     11.458  0.0000E+00  0.1568E+01
     11.568  0.0000E+00  0.1568E+01
     11.677  0.0000E+00  0.1568E+01
     11.786  0.0000E+00  0.1568E+01
