  243  243 1000    1
  0.1311304E+02  0.1499160E-08  0.1499160E-08  0.1637130E-08  0.5000000E-15
   4000.00000000000     
  CAR 
 (Si O2)81  (P1) ~ 3x3x3Supersel (VASP)  
   1296      1    784
 
  0.0000000E+00  0.0000000E+00  0.0000000E+00  0.1000000E+01
    1      -19.513877
    2      -19.511509
    3      -19.302362
    4      -19.219182
    5      -19.177558
    6      -18.950547
    7      -18.929315
    8      -18.913363
    9      -18.777490
   10      -18.648273
   11      -18.606484
   12      -18.594204
   13      -18.561290
   14      -18.432502
   15      -18.388666
   16      -18.374275
   17      -18.337158
   18      -18.274787
   19      -18.261742
   20      -18.220535
   21      -18.112174
   22      -18.100139
   23      -18.077890
   24      -18.053597
   25      -18.022694
   26      -17.972985
   27      -17.941471
   28      -17.899471
   29      -17.859258
   30      -17.825552
   31      -17.774780
   32      -17.733320
   33      -17.725984
   34      -17.676159
   35      -17.642926
   36      -17.603207
   37      -17.578502
   38      -17.534088
   39      -17.499092
   40      -17.480849
   41      -17.433575
   42      -17.428989
   43      -17.389975
   44      -17.373212
   45      -17.343855
   46      -17.319107
   47      -17.297002
   48      -17.266920
   49      -17.248532
   50      -17.224509
   51      -17.192613
   52      -17.160105
   53      -17.148223
   54      -17.127044
   55      -17.094533
   56      -17.084486
   57      -17.054169
   58      -17.042999
   59      -17.022699
   60      -16.982497
   61      -16.970391
   62      -16.955661
   63      -16.922600
   64      -16.916633
   65      -16.900115
   66      -16.848076
   67      -16.836915
   68      -16.819236
   69      -16.792824
   70      -16.762883
   71      -16.726011
   72      -16.715212
   73      -16.685907
   74      -16.653029
   75      -16.559064
   76      -16.558253
   77      -16.532243
   78      -16.505401
   79      -16.481033
   80      -16.474777
   81      -16.461092
   82      -16.433267
   83      -16.423161
   84      -16.400397
   85      -16.385938
   86      -16.365857
   87      -16.324671
   88      -16.292896
   89      -16.255325
   90      -16.237120
   91      -16.223860
   92      -16.210982
   93      -16.198617
   94      -16.161743
   95      -16.153410
   96      -16.138694
   97      -16.128521
   98      -16.093619
   99      -16.068035
  100      -16.057129
  101      -16.045351
  102      -16.029483
  103      -16.004986
  104      -15.988016
  105      -15.965146
  106      -15.954427
  107      -15.943785
  108      -15.895479
  109      -15.885432
  110      -15.851434
  111      -15.814798
  112      -15.809530
  113      -15.794548
  114      -15.783059
  115      -15.719261
  116      -15.708414
  117      -15.687092
  118      -15.670335
  119      -15.655071
  120      -15.634395
  121      -15.624902
  122      -15.593615
  123      -15.590235
  124      -15.582095
  125      -15.570313
  126      -15.555093
  127      -15.512978
  128      -15.481773
  129      -15.450559
  130      -15.430338
  131      -15.428400
  132      -15.420048
  133      -15.359913
  134      -15.336512
  135      -15.317634
  136      -15.303052
  137      -15.293862
  138      -15.265075
  139      -15.215463
  140      -15.184216
  141      -15.171969
  142      -15.161109
  143      -15.139907
  144      -15.106591
  145      -15.091760
  146      -15.049947
  147      -15.041788
  148      -15.022114
  149      -14.979567
  150      -14.814617
  151      -14.798837
  152      -14.772207
  153      -14.708717
  154      -14.676760
  155      -14.657447
  156      -14.625061
  157      -14.590827
  158      -14.332473
  159      -14.322153
  160      -14.317683
  161      -13.949223
  162      -13.535210
  163       -8.362228
  164       -8.201136
  165       -8.045203
  166       -7.999751
  167       -7.945540
  168       -7.843065
  169       -7.753582
  170       -7.717602
  171       -7.699355
  172       -7.642149
  173       -7.571915
  174       -7.561961
  175       -7.468244
  176       -7.465799
  177       -7.380964
  178       -7.352893
  179       -7.282597
  180       -7.253469
  181       -7.214435
  182       -7.160566
  183       -7.126038
  184       -7.073923
  185       -7.014514
  186       -6.963854
  187       -6.874249
  188       -6.804382
  189       -6.789882
  190       -6.729712
  191       -6.672129
  192       -6.631814
  193       -6.573172
  194       -6.535499
  195       -6.465235
  196       -6.451955
  197       -6.401539
  198       -6.333747
  199       -6.274116
  200       -6.257020
  201       -6.202610
  202       -6.146380
  203       -6.136551
  204       -6.093533
  205       -6.021494
  206       -6.011693
  207       -5.952884
  208       -5.891427
  209       -5.856081
  210       -5.766273
  211       -5.760890
  212       -5.720539
  213       -5.656761
  214       -5.620091
  215       -5.558812
  216       -5.530347
  217       -5.517491
  218       -5.479798
  219       -5.444563
  220       -5.392180
  221       -5.332410
  222       -5.302428
  223       -5.276651
  224       -5.250749
  225       -5.175649
  226       -5.165573
  227       -5.136241
  228       -5.119355
  229       -5.089163
  230       -5.047580
  231       -4.996015
  232       -4.983112
  233       -4.909180
  234       -4.896874
  235       -4.842482
  236       -4.814218
  237       -4.785918
  238       -4.748663
  239       -4.742104
  240       -4.726983
  241       -4.682337
  242       -4.665643
  243       -4.633979
  244       -4.596657
  245       -4.565922
  246       -4.540240
  247       -4.526696
  248       -4.506174
  249       -4.452796
  250       -4.419876
  251       -4.383770
  252       -4.379084
  253       -4.359386
  254       -4.317244
  255       -4.299984
  256       -4.273892
  257       -4.256677
  258       -4.206350
  259       -4.197480
  260       -4.178468
  261       -4.148680
  262       -4.108638
  263       -4.107405
  264       -4.088080
  265       -4.077815
  266       -4.057508
  267       -4.031754
  268       -4.018017
  269       -3.992089
  270       -3.966734
  271       -3.953191
  272       -3.948642
  273       -3.937811
  274       -3.909883
  275       -3.893858
  276       -3.874020
  277       -3.828750
  278       -3.820597
  279       -3.801732
  280       -3.768045
  281       -3.735299
  282       -3.715261
  283       -3.703577
  284       -3.658919
  285       -3.650465
  286       -3.634335
  287       -3.606870
  288       -3.579414
  289       -3.561030
  290       -3.549689
  291       -3.540273
  292       -3.522390
  293       -3.489760
  294       -3.441620
  295       -3.429997
  296       -3.411343
  297       -3.382287
  298       -3.361123
  299       -3.346262
  300       -3.306088
  301       -3.292461
  302       -3.270142
  303       -3.247064
  304       -3.204654
  305       -3.199398
  306       -3.181286
  307       -3.170748
  308       -3.139628
  309       -3.112857
  310       -3.104691
  311       -3.087771
  312       -3.065829
  313       -3.037163
  314       -3.026007
  315       -2.991244
  316       -2.982183
  317       -2.944046
  318       -2.926316
  319       -2.889574
  320       -2.876968
  321       -2.870723
  322       -2.835687
  323       -2.818494
  324       -2.814545
  325       -2.809723
  326       -2.769955
  327       -2.736019
  328       -2.714397
  329       -2.670393
  330       -2.664815
  331       -2.648436
  332       -2.639648
  333       -2.620555
  334       -2.595759
  335       -2.585084
  336       -2.571744
  337       -2.519358
  338       -2.506068
  339       -2.500724
  340       -2.463313
  341       -2.439298
  342       -2.415959
  343       -2.393967
  344       -2.378229
  345       -2.367302
  346       -2.358952
  347       -2.320555
  348       -2.320324
  349       -2.287009
  350       -2.272698
  351       -2.246339
  352       -2.239799
  353       -2.231139
  354       -2.225402
  355       -2.188382
  356       -2.177781
  357       -2.165474
  358       -2.142907
  359       -2.131766
  360       -2.114772
  361       -2.103986
  362       -2.092433
  363       -2.065940
  364       -2.058467
  365       -2.042309
  366       -2.029847
  367       -2.013606
  368       -2.000693
  369       -1.976076
  370       -1.971424
  371       -1.949610
  372       -1.938674
  373       -1.930903
  374       -1.915549
  375       -1.895010
  376       -1.876655
  377       -1.851344
  378       -1.848080
  379       -1.827195
  380       -1.802904
  381       -1.781491
  382       -1.774703
  383       -1.752350
  384       -1.742476
  385       -1.736639
  386       -1.713854
  387       -1.702744
  388       -1.689649
  389       -1.679850
  390       -1.674363
  391       -1.632543
  392       -1.619352
  393       -1.601631
  394       -1.584858
  395       -1.583620
  396       -1.578309
  397       -1.561981
  398       -1.552743
  399       -1.542386
  400       -1.536885
  401       -1.521945
  402       -1.502545
  403       -1.498306
  404       -1.467319
  405       -1.446797
  406       -1.443759
  407       -1.433456
  408       -1.419031
  409       -1.403949
  410       -1.376593
  411       -1.371602
  412       -1.353659
  413       -1.342414
  414       -1.340024
  415       -1.320321
  416       -1.318167
  417       -1.303954
  418       -1.289483
  419       -1.277881
  420       -1.266758
  421       -1.258832
  422       -1.239651
  423       -1.213525
  424       -1.202009
  425       -1.186862
  426       -1.186520
  427       -1.154215
  428       -1.151866
  429       -1.139209
  430       -1.134093
  431       -1.115937
  432       -1.100892
  433       -1.087880
  434       -1.064727
  435       -1.063075
  436       -1.057825
  437       -1.048916
  438       -1.023038
  439       -1.016711
  440       -1.007798
  441       -0.982208
  442       -0.957738
  443       -0.954788
  444       -0.942269
  445       -0.935202
  446       -0.920087
  447       -0.907662
  448       -0.895791
  449       -0.882498
  450       -0.869561
  451       -0.856360
  452       -0.845598
  453       -0.818960
  454       -0.817398
  455       -0.808170
  456       -0.799362
  457       -0.783994
  458       -0.764579
  459       -0.757972
  460       -0.746154
  461       -0.742730
  462       -0.726956
  463       -0.705582
  464       -0.698767
  465       -0.680066
  466       -0.664575
  467       -0.657362
  468       -0.637490
  469       -0.633246
  470       -0.617550
  471       -0.615189
  472       -0.575375
  473       -0.568074
  474       -0.566983
  475       -0.557217
  476       -0.537271
  477       -0.520005
  478       -0.511481
  479       -0.497912
  480       -0.492543
  481       -0.476082
  482       -0.457378
  483       -0.439660
  484       -0.427007
  485       -0.412643
  486       -0.407068
  487       -0.390969
  488       -0.384320
  489       -0.377712
  490       -0.365180
  491       -0.359605
  492       -0.355468
  493       -0.327291
  494       -0.315869
  495       -0.304220
  496       -0.292595
  497       -0.279942
  498       -0.262505
  499       -0.259834
  500       -0.254521
  501       -0.235683
  502       -0.226859
  503       -0.217821
  504       -0.207073
  505       -0.192883
  506       -0.169436
  507       -0.162834
  508       -0.159611
  509       -0.145858
  510       -0.128946
  511       -0.115579
  512       -0.096074
  513       -0.087777
  514       -0.081374
  515       -0.071481
  516       -0.050534
  517       -0.048899
  518       -0.024593
  519       -0.018144
  520       -0.003492
  521        0.015332
  522        0.030369
  523        0.043330
  524        0.052593
  525        0.079338
  526        0.094906
  527        0.098854
  528        0.106650
  529        0.110265
  530        0.122344
  531        0.128576
  532        0.159883
  533        0.161655
  534        0.169470
  535        0.183129
  536        0.195535
  537        0.210604
  538        0.220165
  539        0.235788
  540        0.248560
  541        0.254377
  542        0.262823
  543        0.280324
  544        0.291100
  545        0.307919
  546        0.326851
  547        0.339475
  548        0.352750
  549        0.365791
  550        0.375561
  551        0.390040
  552        0.408222
  553        0.422148
  554        0.423020
  555        0.446310
  556        0.453087
  557        0.463508
  558        0.477844
  559        0.488800
  560        0.513067
  561        0.527750
  562        0.534744
  563        0.543143
  564        0.561617
  565        0.578041
  566        0.586030
  567        0.590311
  568        0.602442
  569        0.616358
  570        0.626842
  571        0.631515
  572        0.643842
  573        0.657237
  574        0.663234
  575        0.694736
  576        0.710341
  577        0.724803
  578        0.729499
  579        0.746303
  580        0.760876
  581        0.773287
  582        0.789430
  583        0.805558
  584        0.811823
  585        0.818916
  586        0.835636
  587        0.843544
  588        0.860285
  589        0.867855
  590        0.903011
  591        0.912845
  592        0.920437
  593        0.936546
  594        0.948592
  595        0.965739
  596        0.989207
  597        1.004045
  598        1.017038
  599        1.028585
  600        1.039299
  601        1.049547
  602        1.062014
  603        1.067212
  604        1.080072
  605        1.086670
  606        1.105205
  607        1.117836
  608        1.145867
  609        1.168557
  610        1.187141
  611        1.198475
  612        1.225630
  613        1.234168
  614        1.253974
  615        1.260984
  616        1.295936
  617        1.310923
  618        1.317284
  619        1.329263
  620        1.349878
  621        1.373292
  622        1.398486
  623        1.403779
  624        1.420295
  625        1.436130
  626        1.443761
  627        1.488159
  628        1.505994
  629        1.514751
  630        1.518409
  631        1.559683
  632        1.581216
  633        1.588324
  634        1.608061
  635        1.623713
  636        1.640072
  637        1.751541
  638        1.771038
  639        1.903300
  640        1.951544
  641        1.959766
  642        1.991813
  643        2.015162
  644        2.044398
  645        2.216135
  646        2.252417
  647        2.299500
  648        2.741435
  649        4.498606
  650        4.882760
  651        5.107984
  652        5.283656
  653        5.393226
  654        5.439668
  655        5.512344
  656        5.542545
  657        5.639058
  658        5.738304
  659        5.836511
  660        5.901141
  661        5.960649
  662        5.988838
  663        6.111632
  664        6.162788
  665        6.376952
  666        6.419393
  667        6.440377
  668        6.476000
  669        6.549970
  670        6.583707
  671        6.664131
  672        6.766695
  673        6.787468
  674        6.851585
  675        6.903224
  676        6.964199
  677        7.037532
  678        7.066055
  679        7.094887
  680        7.182253
  681        7.238733
  682        7.285931
  683        7.348027
  684        7.376775
  685        7.415464
  686        7.468946
  687        7.522678
  688        7.570447
  689        7.616326
  690        7.630086
  691        7.632771
  692        7.682646
  693        7.724990
  694        7.751949
  695        7.768210
  696        7.805084
  697        7.891654
  698        7.910626
  699        7.918497
  700        7.984184
  701        8.049840
  702        8.059179
  703        8.122162
  704        8.166820
  705        8.189997
  706        8.224257
  707        8.269747
  708        8.294487
  709        8.311713
  710        8.363103
  711        8.412654
  712        8.432366
  713        8.473846
  714        8.491044
  715        8.530274
  716        8.547698
  717        8.567874
  718        8.582420
  719        8.620195
  720        8.645024
  721        8.692553
  722        8.719477
  723        8.745673
  724        8.761133
  725        8.769969
  726        8.800180
  727        8.828600
  728        8.867495
  729        8.893453
  730        8.907443
  731        8.923771
  732        8.945225
  733        8.976352
  734        9.014331
  735        9.040211
  736        9.065039
  737        9.092428
  738        9.118838
  739        9.152632
  740        9.193693
  741        9.209176
  742        9.218223
  743        9.256471
  744        9.285627
  745        9.289236
  746        9.322401
  747        9.349861
  748        9.374668
  749        9.383521
  750        9.414324
  751        9.438529
  752        9.456510
  753        9.469044
  754        9.494506
  755        9.526431
  756        9.544418
  757        9.569351
  758        9.594687
  759        9.616845
  760        9.632616
  761        9.678868
  762        9.709230
  763        9.734914
  764        9.748750
  765        9.756208
  766        9.775704
  767        9.825363
  768        9.846631
  769        9.859627
  770        9.893839
  771        9.909529
  772        9.979452
  773        9.997679
  774       10.007741
  775       10.040537
  776       10.053537
  777       10.060682
  778       10.079739
  779       10.100767
  780       10.115377
  781       10.172653
  782       10.180453
  783       10.240147
  784       10.295635
