 243 243   0   0
  0.1311304E+02  0.1499160E-08  0.1499160E-08  0.1637130E-08  0.5000000E-15
   4000.00000000000     
  CAR 
 (Si O2)81  (P1) ~ 3x3x3Supersel (VASP)  
     11.67877889    -21.02472363  301      3.50971649      1.00000000
    -21.025  0.0000E+00  0.0000E+00
    -20.916  0.0000E+00  0.0000E+00
    -20.807  0.0000E+00  0.0000E+00
    -20.698  0.0000E+00  0.0000E+00
    -20.589  0.0000E+00  0.0000E+00
    -20.480  0.0000E+00  0.0000E+00
    -20.371  0.0000E+00  0.0000E+00
    -20.262  0.0000E+00  0.0000E+00
    -20.153  0.0000E+00  0.0000E+00
    -20.044  0.0000E+00  0.0000E+00
    -19.935  0.0000E+00  0.0000E+00
    -19.826  0.1822E-14  0.2002E-15
    -19.717  0.2845E-05  0.3138E-06
    -19.608  0.4274E+00  0.4729E-01
    -19.499  0.1706E+02  0.1935E+01
    -19.390  0.8433E+01  0.2863E+01
    -19.281  0.7613E+01  0.3699E+01
    -19.172  0.9465E+01  0.4739E+01
    -19.063  0.1167E+02  0.6022E+01
    -18.954  0.1358E+02  0.7514E+01
    -18.844  0.1667E+02  0.9349E+01
    -18.735  0.2090E+02  0.1165E+02
    -18.626  0.2426E+02  0.1433E+02
    -18.517  0.2716E+02  0.1732E+02
    -18.408  0.3067E+02  0.2070E+02
    -18.299  0.3497E+02  0.2456E+02
    -18.190  0.3845E+02  0.2880E+02
    -18.081  0.4260E+02  0.3350E+02
    -17.972  0.4480E+02  0.3844E+02
    -17.863  0.4911E+02  0.4387E+02
    -17.754  0.5277E+02  0.4970E+02
    -17.645  0.5568E+02  0.5585E+02
    -17.536  0.5902E+02  0.6237E+02
    -17.427  0.6197E+02  0.6922E+02
    -17.318  0.6382E+02  0.7628E+02
    -17.209  0.6722E+02  0.8371E+02
    -17.100  0.6936E+02  0.9138E+02
    -16.991  0.7058E+02  0.9919E+02
    -16.882  0.7358E+02  0.1073E+03
    -16.773  0.7662E+02  0.1158E+03
    -16.664  0.7738E+02  0.1244E+03
    -16.555  0.7993E+02  0.1332E+03
    -16.446  0.7992E+02  0.1421E+03
    -16.337  0.8137E+02  0.1511E+03
    -16.228  0.8235E+02  0.1602E+03
    -16.119  0.8263E+02  0.1693E+03
    -16.010  0.8452E+02  0.1787E+03
    -15.901  0.8550E+02  0.1882E+03
    -15.792  0.8372E+02  0.1974E+03
    -15.683  0.8268E+02  0.2066E+03
    -15.574  0.8275E+02  0.2157E+03
    -15.465  0.8186E+02  0.2248E+03
    -15.356  0.7917E+02  0.2336E+03
    -15.247  0.7440E+02  0.2418E+03
    -15.138  0.7389E+02  0.2500E+03
    -15.029  0.7055E+02  0.2579E+03
    -14.920  0.6572E+02  0.2651E+03
    -14.811  0.6041E+02  0.2719E+03
    -14.702  0.5739E+02  0.2782E+03
    -14.593  0.5336E+02  0.2842E+03
    -14.484  0.4740E+02  0.2894E+03
    -14.375  0.4271E+02  0.2942E+03
    -14.266  0.3924E+02  0.2985E+03
    -14.157  0.3584E+02  0.3025E+03
    -14.048  0.3287E+02  0.3062E+03
    -13.939  0.2816E+02  0.3093E+03
    -13.830  0.2385E+02  0.3120E+03
    -13.721  0.1990E+02  0.3142E+03
    -13.612  0.1681E+02  0.3161E+03
    -13.503  0.1421E+02  0.3176E+03
    -13.394  0.1178E+02  0.3190E+03
    -13.285  0.9191E+01  0.3200E+03
    -13.176  0.7038E+01  0.3208E+03
    -13.067  0.5579E+01  0.3214E+03
    -12.958  0.5044E+01  0.3220E+03
    -12.849  0.4299E+01  0.3224E+03
    -12.740  0.3555E+01  0.3228E+03
    -12.631  0.2875E+01  0.3232E+03
    -12.522  0.1839E+01  0.3234E+03
    -12.413  0.1140E+01  0.3235E+03
    -12.304  0.1088E+01  0.3236E+03
    -12.195  0.9123E+00  0.3237E+03
    -12.086  0.6669E+00  0.3238E+03
    -11.977  0.5639E+00  0.3239E+03
    -11.868  0.4555E+00  0.3239E+03
    -11.759  0.4728E+00  0.3240E+03
    -11.650  0.2100E+00  0.3240E+03
    -11.541  0.4620E-01  0.3240E+03
    -11.432  0.5483E-01  0.3240E+03
    -11.323  0.5789E-01  0.3240E+03
    -11.214  0.1285E-02  0.3240E+03
    -11.105  0.9667E-08  0.3240E+03
    -10.996  0.0000E+00  0.3240E+03
    -10.887  0.0000E+00  0.3240E+03
    -10.778  0.0000E+00  0.3240E+03
    -10.669  0.0000E+00  0.3240E+03
    -10.560  0.0000E+00  0.3240E+03
    -10.451  0.0000E+00  0.3240E+03
    -10.342  0.0000E+00  0.3240E+03
    -10.233  0.0000E+00  0.3240E+03
    -10.124  0.0000E+00  0.3240E+03
    -10.015  0.0000E+00  0.3240E+03
     -9.906  0.0000E+00  0.3240E+03
     -9.797  0.0000E+00  0.3240E+03
     -9.688  0.0000E+00  0.3240E+03
     -9.578  0.0000E+00  0.3240E+03
     -9.469  0.0000E+00  0.3240E+03
     -9.360  0.1407E-08  0.3240E+03
     -9.251  0.5087E-03  0.3240E+03
     -9.142  0.6853E-01  0.3240E+03
     -9.033  0.1882E+00  0.3240E+03
     -8.924  0.1211E+01  0.3242E+03
     -8.815  0.2923E+01  0.3245E+03
     -8.706  0.4379E+01  0.3250E+03
     -8.597  0.5296E+01  0.3256E+03
     -8.488  0.6628E+01  0.3263E+03
     -8.379  0.9267E+01  0.3273E+03
     -8.270  0.1196E+02  0.3286E+03
     -8.161  0.1494E+02  0.3303E+03
     -8.052  0.1731E+02  0.3322E+03
     -7.943  0.1990E+02  0.3344E+03
     -7.834  0.2281E+02  0.3369E+03
     -7.725  0.2376E+02  0.3395E+03
     -7.616  0.2654E+02  0.3425E+03
     -7.507  0.2910E+02  0.3457E+03
     -7.398  0.3070E+02  0.3491E+03
     -7.289  0.3319E+02  0.3527E+03
     -7.180  0.3436E+02  0.3565E+03
     -7.071  0.3593E+02  0.3605E+03
     -6.962  0.3630E+02  0.3645E+03
     -6.853  0.3710E+02  0.3686E+03
     -6.744  0.3765E+02  0.3728E+03
     -6.635  0.3876E+02  0.3771E+03
     -6.526  0.3945E+02  0.3815E+03
     -6.417  0.4060E+02  0.3860E+03
     -6.308  0.4121E+02  0.3905E+03
     -6.199  0.4265E+02  0.3952E+03
     -6.090  0.4255E+02  0.3999E+03
     -5.981  0.4400E+02  0.4048E+03
     -5.872  0.4466E+02  0.4098E+03
     -5.763  0.4618E+02  0.4149E+03
     -5.654  0.4773E+02  0.4202E+03
     -5.545  0.4760E+02  0.4254E+03
     -5.436  0.4889E+02  0.4308E+03
     -5.327  0.5011E+02  0.4364E+03
     -5.218  0.5185E+02  0.4421E+03
     -5.109  0.5484E+02  0.4482E+03
     -5.000  0.5674E+02  0.4545E+03
     -4.891  0.5881E+02  0.4610E+03
     -4.782  0.6146E+02  0.4678E+03
     -4.673  0.6502E+02  0.4750E+03
     -4.564  0.6697E+02  0.4824E+03
     -4.455  0.6972E+02  0.4901E+03
     -4.346  0.7338E+02  0.4982E+03
     -4.237  0.7531E+02  0.5066E+03
     -4.128  0.7881E+02  0.5153E+03
     -4.019  0.7931E+02  0.5241E+03
     -3.910  0.8167E+02  0.5331E+03
     -3.801  0.8345E+02  0.5423E+03
     -3.692  0.8597E+02  0.5519E+03
     -3.583  0.8698E+02  0.5615E+03
     -3.474  0.8830E+02  0.5713E+03
     -3.365  0.8773E+02  0.5810E+03
     -3.256  0.8926E+02  0.5909E+03
     -3.147  0.9138E+02  0.6010E+03
     -3.038  0.9326E+02  0.6113E+03
     -2.929  0.9401E+02  0.6217E+03
     -2.820  0.9667E+02  0.6324E+03
     -2.711  0.9853E+02  0.6433E+03
     -2.602  0.1016E+03  0.6546E+03
     -2.493  0.1051E+03  0.6662E+03
     -2.384  0.1092E+03  0.6783E+03
     -2.275  0.1129E+03  0.6908E+03
     -2.166  0.1170E+03  0.7038E+03
     -2.057  0.1220E+03  0.7173E+03
     -1.948  0.1251E+03  0.7311E+03
     -1.839  0.1294E+03  0.7454E+03
     -1.730  0.1329E+03  0.7602E+03
     -1.621  0.1359E+03  0.7752E+03
     -1.512  0.1401E+03  0.7907E+03
     -1.403  0.1433E+03  0.8066E+03
     -1.294  0.1451E+03  0.8226E+03
     -1.185  0.1462E+03  0.8388E+03
     -1.076  0.1494E+03  0.8554E+03
     -0.967  0.1508E+03  0.8721E+03
     -0.858  0.1536E+03  0.8891E+03
     -0.749  0.1542E+03  0.9062E+03
     -0.640  0.1548E+03  0.9233E+03
     -0.531  0.1555E+03  0.9405E+03
     -0.422  0.1564E+03  0.9578E+03
     -0.313  0.1575E+03  0.9753E+03
     -0.203  0.1570E+03  0.9927E+03
     -0.094  0.1562E+03  0.1010E+04
      0.015  0.1550E+03  0.1027E+04
      0.124  0.1541E+03  0.1044E+04
      0.233  0.1542E+03  0.1061E+04
      0.342  0.1526E+03  0.1078E+04
      0.451  0.1491E+03  0.1095E+04
      0.560  0.1465E+03  0.1111E+04
      0.669  0.1423E+03  0.1127E+04
      0.778  0.1391E+03  0.1142E+04
      0.887  0.1332E+03  0.1157E+04
      0.996  0.1298E+03  0.1171E+04
      1.105  0.1242E+03  0.1185E+04
      1.214  0.1167E+03  0.1198E+04
      1.323  0.1104E+03  0.1210E+04
      1.432  0.1034E+03  0.1222E+04
      1.541  0.9700E+02  0.1232E+04
      1.650  0.8788E+02  0.1242E+04
      1.759  0.8022E+02  0.1251E+04
      1.868  0.7141E+02  0.1259E+04
      1.977  0.6350E+02  0.1266E+04
      2.086  0.5495E+02  0.1272E+04
      2.195  0.4636E+02  0.1277E+04
      2.304  0.3789E+02  0.1281E+04
      2.413  0.3036E+02  0.1285E+04
      2.522  0.2308E+02  0.1287E+04
      2.631  0.1879E+02  0.1289E+04
      2.740  0.1463E+02  0.1291E+04
      2.849  0.1160E+02  0.1292E+04
      2.958  0.9400E+01  0.1293E+04
      3.067  0.7220E+01  0.1294E+04
      3.176  0.6021E+01  0.1295E+04
      3.285  0.3722E+01  0.1295E+04
      3.394  0.2715E+01  0.1296E+04
      3.503  0.1927E+01  0.1296E+04
      3.612  0.1771E+01  0.1296E+04
      3.721  0.1888E+01  0.1296E+04
      3.830  0.2040E+01  0.1296E+04
      3.939  0.2039E+01  0.1297E+04
      4.048  0.2335E+01  0.1297E+04
      4.157  0.2959E+01  0.1297E+04
      4.266  0.2971E+01  0.1298E+04
      4.375  0.3740E+01  0.1298E+04
      4.484  0.4910E+01  0.1299E+04
      4.593  0.6563E+01  0.1299E+04
      4.702  0.7606E+01  0.1300E+04
      4.811  0.7748E+01  0.1301E+04
      4.920  0.8820E+01  0.1302E+04
      5.029  0.9221E+01  0.1303E+04
      5.138  0.1110E+02  0.1304E+04
      5.247  0.1292E+02  0.1306E+04
      5.356  0.1358E+02  0.1307E+04
      5.465  0.1591E+02  0.1309E+04
      5.574  0.1697E+02  0.1311E+04
      5.683  0.1890E+02  0.1313E+04
      5.792  0.2069E+02  0.1315E+04
      5.901  0.2229E+02  0.1318E+04
      6.010  0.2426E+02  0.1320E+04
      6.119  0.2584E+02  0.1323E+04
      6.228  0.2710E+02  0.1326E+04
      6.337  0.2880E+02  0.1329E+04
      6.446  0.3123E+02  0.1333E+04
      6.555  0.3174E+02  0.1336E+04
      6.664  0.3297E+02  0.1340E+04
      6.773  0.3545E+02  0.1344E+04
      6.882  0.3606E+02  0.1348E+04
      6.991  0.3951E+02  0.1352E+04
      7.100  0.3953E+02  0.1357E+04
      7.209  0.4137E+02  0.1361E+04
      7.318  0.4545E+02  0.1366E+04
      7.427  0.4557E+02  0.1371E+04
      7.536  0.4730E+02  0.1377E+04
      7.645  0.5028E+02  0.1382E+04
      7.754  0.5190E+02  0.1388E+04
      7.863  0.5317E+02  0.1394E+04
      7.972  0.5530E+02  0.1400E+04
      8.081  0.5755E+02  0.1406E+04
      8.190  0.5973E+02  0.1413E+04
      8.299  0.6213E+02  0.1420E+04
      8.408  0.6467E+02  0.1427E+04
      8.517  0.6702E+02  0.1434E+04
      8.626  0.6958E+02  0.1442E+04
      8.735  0.7086E+02  0.1450E+04
      8.844  0.7275E+02  0.1458E+04
      8.953  0.7545E+02  0.1466E+04
      9.062  0.7566E+02  0.1475E+04
      9.172  0.8000E+02  0.1484E+04
      9.281  0.8220E+02  0.1493E+04
      9.390  0.8304E+02  0.1502E+04
      9.499  0.8502E+02  0.1511E+04
      9.608  0.8550E+02  0.1521E+04
      9.717  0.8478E+02  0.1530E+04
      9.826  0.8343E+02  0.1539E+04
      9.935  0.8171E+02  0.1548E+04
     10.044  0.7851E+02  0.1557E+04
     10.153  0.6743E+02  0.1565E+04
     10.262  0.3028E+02  0.1568E+04
     10.371  0.4625E+00  0.1568E+04
     10.480  0.2880E-05  0.1568E+04
     10.589  0.1181E-14  0.1568E+04
     10.698  0.0000E+00  0.1568E+04
     10.807  0.0000E+00  0.1568E+04
     10.916  0.0000E+00  0.1568E+04
     11.025  0.0000E+00  0.1568E+04
     11.134  0.0000E+00  0.1568E+04
     11.243  0.0000E+00  0.1568E+04
     11.352  0.0000E+00  0.1568E+04
     11.461  0.0000E+00  0.1568E+04
     11.570  0.0000E+00  0.1568E+04
     11.679  0.0000E+00  0.1568E+04
     11.73477892    -21.07151738  301      3.54003949      1.00000000
    -21.072  0.0000E+00  0.0000E+00
    -20.962  0.0000E+00  0.0000E+00
    -20.853  0.0000E+00  0.0000E+00
    -20.743  0.0000E+00  0.0000E+00
    -20.634  0.0000E+00  0.0000E+00
    -20.525  0.0000E+00  0.0000E+00
    -20.415  0.0000E+00  0.0000E+00
    -20.306  0.0000E+00  0.0000E+00
    -20.197  0.0000E+00  0.0000E+00
    -20.087  0.0000E+00  0.0000E+00
    -19.978  0.0000E+00  0.0000E+00
    -19.869  0.3046E-17  0.3331E-18
    -19.759  0.3808E-08  0.4164E-09
    -19.650  0.4484E-03  0.4904E-04
    -19.541  0.1546E-01  0.1739E-02
    -19.431  0.6896E-02  0.2494E-02
    -19.322  0.1418E-01  0.4044E-02
    -19.212  0.3638E-01  0.8023E-02
    -19.103  0.2590E-01  0.1086E-01
    -18.994  0.3520E-01  0.1470E-01
    -18.884  0.2088E-01  0.1699E-01
    -18.775  0.2722E-01  0.1996E-01
    -18.666  0.2631E-01  0.2284E-01
    -18.556  0.3421E-01  0.2658E-01
    -18.447  0.6109E-01  0.3326E-01
    -18.338  0.4111E-01  0.3776E-01
    -18.228  0.3971E-01  0.4210E-01
    -18.119  0.6336E-01  0.4903E-01
    -18.010  0.8003E-01  0.5778E-01
    -17.900  0.5531E-01  0.6383E-01
    -17.791  0.4975E-01  0.6927E-01
    -17.682  0.8605E-01  0.7868E-01
    -17.572  0.7428E-01  0.8680E-01
    -17.463  0.3034E-01  0.9012E-01
    -17.353  0.4867E-01  0.9544E-01
    -17.244  0.6841E-01  0.1029E+00
    -17.135  0.5529E-01  0.1090E+00
    -17.025  0.6004E-01  0.1155E+00
    -16.916  0.8764E-01  0.1251E+00
    -16.807  0.7153E-01  0.1329E+00
    -16.697  0.5988E-01  0.1395E+00
    -16.588  0.8021E-01  0.1483E+00
    -16.479  0.1093E+00  0.1602E+00
    -16.369  0.1016E+00  0.1713E+00
    -16.260  0.7300E-01  0.1793E+00
    -16.151  0.1102E+00  0.1914E+00
    -16.041  0.1033E+00  0.2027E+00
    -15.932  0.7459E-01  0.2108E+00
    -15.823  0.6510E-01  0.2179E+00
    -15.713  0.5570E-01  0.2240E+00
    -15.604  0.6838E-01  0.2315E+00
    -15.494  0.9738E-01  0.2422E+00
    -15.385  0.1184E+00  0.2551E+00
    -15.276  0.6884E-01  0.2626E+00
    -15.166  0.8990E-01  0.2725E+00
    -15.057  0.5950E-01  0.2790E+00
    -14.948  0.5957E-01  0.2855E+00
    -14.838  0.3143E-01  0.2889E+00
    -14.729  0.5825E-01  0.2953E+00
    -14.620  0.4468E-01  0.3002E+00
    -14.510  0.5112E-01  0.3058E+00
    -14.401  0.2118E-01  0.3081E+00
    -14.292  0.2906E-01  0.3113E+00
    -14.182  0.6728E-02  0.3120E+00
    -14.073  0.4684E-03  0.3121E+00
    -13.963  0.1911E-01  0.3141E+00
    -13.854  0.3373E-01  0.3178E+00
    -13.745  0.6885E-02  0.3186E+00
    -13.635  0.1287E-01  0.3200E+00
    -13.526  0.1006E-03  0.3200E+00
    -13.417  0.2947E-09  0.3200E+00
    -13.307  0.9271E-04  0.3200E+00
    -13.198  0.1269E-01  0.3214E+00
    -13.089  0.7979E-02  0.3223E+00
    -12.979  0.1539E-01  0.3240E+00
    -12.870  0.4236E-03  0.3240E+00
    -12.761  0.3354E-08  0.3240E+00
    -12.651  0.4061E-17  0.3240E+00
    -12.542  0.0000E+00  0.3240E+00
    -12.433  0.0000E+00  0.3240E+00
    -12.323  0.0000E+00  0.3240E+00
    -12.214  0.0000E+00  0.3240E+00
    -12.104  0.0000E+00  0.3240E+00
    -11.995  0.0000E+00  0.3240E+00
    -11.886  0.0000E+00  0.3240E+00
    -11.776  0.0000E+00  0.3240E+00
    -11.667  0.0000E+00  0.3240E+00
    -11.558  0.0000E+00  0.3240E+00
    -11.448  0.0000E+00  0.3240E+00
    -11.339  0.0000E+00  0.3240E+00
    -11.230  0.0000E+00  0.3240E+00
    -11.120  0.0000E+00  0.3240E+00
    -11.011  0.0000E+00  0.3240E+00
    -10.902  0.0000E+00  0.3240E+00
    -10.792  0.0000E+00  0.3240E+00
    -10.683  0.0000E+00  0.3240E+00
    -10.574  0.0000E+00  0.3240E+00
    -10.464  0.0000E+00  0.3240E+00
    -10.355  0.0000E+00  0.3240E+00
    -10.245  0.0000E+00  0.3240E+00
    -10.136  0.0000E+00  0.3240E+00
    -10.027  0.0000E+00  0.3240E+00
     -9.917  0.0000E+00  0.3240E+00
     -9.808  0.0000E+00  0.3240E+00
     -9.699  0.0000E+00  0.3240E+00
     -9.589  0.0000E+00  0.3240E+00
     -9.480  0.0000E+00  0.3240E+00
     -9.371  0.0000E+00  0.3240E+00
     -9.261  0.0000E+00  0.3240E+00
     -9.152  0.0000E+00  0.3240E+00
     -9.043  0.2466E-10  0.3240E+00
     -8.933  0.3922E-04  0.3240E+00
     -8.824  0.1082E-01  0.3252E+00
     -8.714  0.7424E-02  0.3260E+00
     -8.605  0.1081E-04  0.3260E+00
     -8.496  0.5571E-02  0.3266E+00
     -8.386  0.1467E-01  0.3282E+00
     -8.277  0.2029E-01  0.3304E+00
     -8.168  0.1420E-01  0.3320E+00
     -8.058  0.9843E-02  0.3331E+00
     -7.949  0.3272E-01  0.3366E+00
     -7.840  0.2211E-01  0.3391E+00
     -7.730  0.5025E-01  0.3446E+00
     -7.621  0.3244E-01  0.3481E+00
     -7.512  0.3095E-01  0.3515E+00
     -7.402  0.2253E-01  0.3539E+00
     -7.293  0.1810E-01  0.3559E+00
     -7.184  0.3613E-01  0.3599E+00
     -7.074  0.3886E-01  0.3641E+00
     -6.965  0.5005E-01  0.3696E+00
     -6.855  0.3687E-01  0.3736E+00
     -6.746  0.3683E-01  0.3777E+00
     -6.637  0.4381E-01  0.3825E+00
     -6.527  0.5716E-01  0.3887E+00
     -6.418  0.2900E-01  0.3919E+00
     -6.309  0.3453E-01  0.3957E+00
     -6.199  0.5195E-01  0.4013E+00
     -6.090  0.4966E-01  0.4068E+00
     -5.981  0.4718E-01  0.4119E+00
     -5.871  0.2224E-01  0.4144E+00
     -5.762  0.3381E-01  0.4180E+00
     -5.653  0.5113E-01  0.4236E+00
     -5.543  0.4762E-01  0.4288E+00
     -5.434  0.5384E-01  0.4347E+00
     -5.324  0.6029E-01  0.4413E+00
     -5.215  0.6481E-01  0.4484E+00
     -5.106  0.7373E-01  0.4565E+00
     -4.996  0.5794E-01  0.4628E+00
     -4.887  0.5972E-01  0.4693E+00
     -4.778  0.5793E-01  0.4757E+00
     -4.668  0.7439E-01  0.4838E+00
     -4.559  0.7920E-01  0.4925E+00
     -4.450  0.6208E-01  0.4993E+00
     -4.340  0.7529E-01  0.5075E+00
     -4.231  0.9241E-01  0.5176E+00
     -4.122  0.7136E-01  0.5254E+00
     -4.012  0.7259E-01  0.5333E+00
     -3.903  0.8480E-01  0.5426E+00
     -3.794  0.9356E-01  0.5528E+00
     -3.684  0.8530E-01  0.5622E+00
     -3.575  0.8366E-01  0.5713E+00
     -3.465  0.7945E-01  0.5800E+00
     -3.356  0.9968E-01  0.5909E+00
     -3.247  0.9585E-01  0.6014E+00
     -3.137  0.1301E+00  0.6156E+00
     -3.028  0.8325E-01  0.6247E+00
     -2.919  0.1150E+00  0.6373E+00
     -2.809  0.1079E+00  0.6491E+00
     -2.700  0.9664E-01  0.6597E+00
     -2.591  0.1149E+00  0.6722E+00
     -2.481  0.1022E+00  0.6834E+00
     -2.372  0.1038E+00  0.6948E+00
     -2.263  0.1172E+00  0.7076E+00
     -2.153  0.1268E+00  0.7215E+00
     -2.044  0.1216E+00  0.7347E+00
     -1.935  0.1229E+00  0.7482E+00
     -1.825  0.1297E+00  0.7624E+00
     -1.716  0.1234E+00  0.7759E+00
     -1.606  0.1282E+00  0.7899E+00
     -1.497  0.1451E+00  0.8058E+00
     -1.388  0.1463E+00  0.8218E+00
     -1.278  0.1444E+00  0.8376E+00
     -1.169  0.1386E+00  0.8527E+00
     -1.060  0.1337E+00  0.8673E+00
     -0.950  0.1459E+00  0.8833E+00
     -0.841  0.1560E+00  0.9003E+00
     -0.732  0.1577E+00  0.9176E+00
     -0.622  0.1476E+00  0.9337E+00
     -0.513  0.1662E+00  0.9519E+00
     -0.404  0.1567E+00  0.9690E+00
     -0.294  0.1728E+00  0.9879E+00
     -0.185  0.1493E+00  0.1004E+01
     -0.075  0.1685E+00  0.1023E+01
      0.034  0.1640E+00  0.1041E+01
      0.143  0.1677E+00  0.1059E+01
      0.253  0.1609E+00  0.1077E+01
      0.362  0.1626E+00  0.1094E+01
      0.471  0.1636E+00  0.1112E+01
      0.581  0.1569E+00  0.1129E+01
      0.690  0.1272E+00  0.1143E+01
      0.799  0.1169E+00  0.1156E+01
      0.909  0.1218E+00  0.1169E+01
      1.018  0.1337E+00  0.1184E+01
      1.127  0.1144E+00  0.1197E+01
      1.237  0.1312E+00  0.1211E+01
      1.346  0.7567E-01  0.1219E+01
      1.455  0.8128E-01  0.1228E+01
      1.565  0.9200E-01  0.1238E+01
      1.674  0.9356E-01  0.1248E+01
      1.784  0.6786E-01  0.1256E+01
      1.893  0.5669E-01  0.1262E+01
      2.002  0.5607E-01  0.1268E+01
      2.112  0.5189E-01  0.1274E+01
      2.221  0.3365E-01  0.1277E+01
      2.330  0.3256E-01  0.1281E+01
      2.440  0.2405E-01  0.1284E+01
      2.549  0.9946E-02  0.1285E+01
      2.658  0.4123E-01  0.1289E+01
      2.768  0.1968E-01  0.1291E+01
      2.877  0.1863E-01  0.1293E+01
      2.986  0.5315E-02  0.1294E+01
      3.096  0.6820E-05  0.1294E+01
      3.205  0.6300E-02  0.1295E+01
      3.314  0.1192E-01  0.1296E+01
      3.424  0.6469E-04  0.1296E+01
      3.533  0.6578E-10  0.1296E+01
      3.643  0.2559E-08  0.1296E+01
      3.752  0.3750E-03  0.1296E+01
      3.861  0.1523E-01  0.1298E+01
      3.971  0.2688E-02  0.1298E+01
      4.080  0.3141E-06  0.1298E+01
      4.189  0.1324E-12  0.1298E+01
      4.299  0.2264E-05  0.1298E+01
      4.408  0.5187E-02  0.1299E+01
      4.517  0.1316E-01  0.1300E+01
      4.627  0.1397E-01  0.1302E+01
      4.736  0.1332E-01  0.1303E+01
      4.845  0.1431E-01  0.1305E+01
      4.955  0.1310E-01  0.1306E+01
      5.064  0.6327E-03  0.1306E+01
      5.174  0.2321E-01  0.1309E+01
      5.283  0.1656E-01  0.1310E+01
      5.392  0.1656E-01  0.1312E+01
      5.502  0.3945E-01  0.1317E+01
      5.611  0.1982E-01  0.1319E+01
      5.720  0.1731E-01  0.1321E+01
      5.830  0.2619E-01  0.1323E+01
      5.939  0.6771E-02  0.1324E+01
      6.048  0.3035E-01  0.1328E+01
      6.158  0.9726E-02  0.1329E+01
      6.267  0.3337E-01  0.1332E+01
      6.376  0.4347E-01  0.1337E+01
      6.486  0.2554E-01  0.1340E+01
      6.595  0.3833E-01  0.1344E+01
      6.704  0.3604E-01  0.1348E+01
      6.814  0.2871E-01  0.1351E+01
      6.923  0.2691E-01  0.1354E+01
      7.033  0.5062E-01  0.1360E+01
      7.142  0.4496E-01  0.1364E+01
      7.251  0.4144E-01  0.1369E+01
      7.361  0.5599E-01  0.1375E+01
      7.470  0.4531E-01  0.1380E+01
      7.579  0.5672E-01  0.1386E+01
      7.689  0.5627E-01  0.1392E+01
      7.798  0.5347E-01  0.1398E+01
      7.907  0.5271E-01  0.1404E+01
      8.017  0.5655E-01  0.1410E+01
      8.126  0.3937E-01  0.1415E+01
      8.235  0.5500E-01  0.1421E+01
      8.345  0.5605E-01  0.1427E+01
      8.454  0.6201E-01  0.1433E+01
      8.564  0.6639E-01  0.1441E+01
      8.673  0.7178E-01  0.1449E+01
      8.782  0.6522E-01  0.1456E+01
      8.892  0.7494E-01  0.1464E+01
      9.001  0.8287E-01  0.1473E+01
      9.110  0.8783E-01  0.1483E+01
      9.220  0.6329E-01  0.1489E+01
      9.329  0.8872E-01  0.1499E+01
      9.438  0.8568E-01  0.1509E+01
      9.548  0.6329E-01  0.1515E+01
      9.657  0.6874E-01  0.1523E+01
      9.766  0.7853E-01  0.1532E+01
      9.876  0.6862E-01  0.1539E+01
      9.985  0.7625E-01  0.1547E+01
     10.094  0.7681E-01  0.1556E+01
     10.204  0.7519E-01  0.1564E+01
     10.313  0.3594E-01  0.1568E+01
     10.423  0.4989E-03  0.1568E+01
     10.532  0.3837E-08  0.1568E+01
     10.641  0.4061E-17  0.1568E+01
     10.751  0.0000E+00  0.1568E+01
     10.860  0.0000E+00  0.1568E+01
     10.969  0.0000E+00  0.1568E+01
     11.079  0.0000E+00  0.1568E+01
     11.188  0.0000E+00  0.1568E+01
     11.297  0.0000E+00  0.1568E+01
     11.407  0.0000E+00  0.1568E+01
     11.516  0.0000E+00  0.1568E+01
     11.625  0.0000E+00  0.1568E+01
     11.735  0.0000E+00  0.1568E+01
