  243  243 1000    1
  0.1311304E+02  0.1499160E-08  0.1499160E-08  0.1637130E-08  0.5000000E-15
   4000.00000000000     
  CAR 
 (Si O2)81  (P1) ~ 3x3x3Supersel (VASP)  
   1296      1    784
 
  0.0000000E+00  0.0000000E+00  0.0000000E+00  0.1000000E+01
    1      -19.580322
    2      -19.406996
    3      -19.252240
    4      -19.230790
    5      -19.207513
    6      -19.093156
    7      -19.041251
    8      -18.988781
    9      -18.883814
   10      -18.785552
   11      -18.763018
   12      -18.658482
   13      -18.572939
   14      -18.557436
   15      -18.507933
   16      -18.478965
   17      -18.446033
   18      -18.433784
   19      -18.370279
   20      -18.282173
   21      -18.240955
   22      -18.213732
   23      -18.186364
   24      -18.152638
   25      -18.113242
   26      -18.095872
   27      -18.039274
   28      -18.035138
   29      -18.022792
   30      -17.996289
   31      -17.991711
   32      -17.943123
   33      -17.833581
   34      -17.809850
   35      -17.788858
   36      -17.779910
   37      -17.750547
   38      -17.736140
   39      -17.684455
   40      -17.675059
   41      -17.664992
   42      -17.642895
   43      -17.600664
   44      -17.582306
   45      -17.504983
   46      -17.429043
   47      -17.375760
   48      -17.350265
   49      -17.341696
   50      -17.313101
   51      -17.292230
   52      -17.231452
   53      -17.212668
   54      -17.178326
   55      -17.123212
   56      -17.104071
   57      -17.075226
   58      -17.017274
   59      -16.996005
   60      -16.984904
   61      -16.979667
   62      -16.956995
   63      -16.918518
   64      -16.880524
   65      -16.860907
   66      -16.837115
   67      -16.813932
   68      -16.770659
   69      -16.726257
   70      -16.699651
   71      -16.687407
   72      -16.631534
   73      -16.624117
   74      -16.608511
   75      -16.570317
   76      -16.551597
   77      -16.543685
   78      -16.534165
   79      -16.525069
   80      -16.507070
   81      -16.463767
   82      -16.432939
   83      -16.424681
   84      -16.408647
   85      -16.386631
   86      -16.377138
   87      -16.356300
   88      -16.346212
   89      -16.281318
   90      -16.260347
   91      -16.235050
   92      -16.224155
   93      -16.186475
   94      -16.178418
   95      -16.176917
   96      -16.149942
   97      -16.138639
   98      -16.134309
   99      -16.104415
  100      -16.081753
  101      -16.055580
  102      -16.036999
  103      -16.012349
  104      -16.006417
  105      -15.969454
  106      -15.917781
  107      -15.899687
  108      -15.873170
  109      -15.846085
  110      -15.797521
  111      -15.771045
  112      -15.714677
  113      -15.699234
  114      -15.680133
  115      -15.647624
  116      -15.606261
  117      -15.574120
  118      -15.560597
  119      -15.537448
  120      -15.519050
  121      -15.496085
  122      -15.484176
  123      -15.473521
  124      -15.456209
  125      -15.445093
  126      -15.441783
  127      -15.399593
  128      -15.387300
  129      -15.366564
  130      -15.355038
  131      -15.278378
  132      -15.275842
  133      -15.251491
  134      -15.214067
  135      -15.193920
  136      -15.184080
  137      -15.176601
  138      -15.140801
  139      -15.080492
  140      -15.062368
  141      -15.015893
  142      -14.998766
  143      -14.981998
  144      -14.865182
  145      -14.831123
  146      -14.815593
  147      -14.742791
  148      -14.734893
  149      -14.723124
  150      -14.628113
  151      -14.609038
  152      -14.576612
  153      -14.520150
  154      -14.492508
  155      -14.339915
  156      -14.311911
  157      -14.003827
  158      -13.925016
  159      -13.908208
  160      -13.725316
  161      -13.216459
  162      -13.049741
  163       -8.832210
  164       -8.477713
  165       -8.343385
  166       -8.252863
  167       -8.059082
  168       -7.987340
  169       -7.945463
  170       -7.828998
  171       -7.795148
  172       -7.779594
  173       -7.717803
  174       -7.664892
  175       -7.585225
  176       -7.526765
  177       -7.465256
  178       -7.322652
  179       -7.257946
  180       -7.192884
  181       -7.166909
  182       -7.118812
  183       -7.032317
  184       -7.012453
  185       -6.996225
  186       -6.919960
  187       -6.866153
  188       -6.829243
  189       -6.757401
  190       -6.716963
  191       -6.663964
  192       -6.616622
  193       -6.595828
  194       -6.578558
  195       -6.523082
  196       -6.438833
  197       -6.390217
  198       -6.310718
  199       -6.285099
  200       -6.253438
  201       -6.203056
  202       -6.165769
  203       -6.128833
  204       -6.082030
  205       -6.047294
  206       -6.005399
  207       -5.954900
  208       -5.839335
  209       -5.766370
  210       -5.756353
  211       -5.702000
  212       -5.673601
  213       -5.616425
  214       -5.583647
  215       -5.531448
  216       -5.500424
  217       -5.495041
  218       -5.418667
  219       -5.382141
  220       -5.369954
  221       -5.324495
  222       -5.305893
  223       -5.243516
  224       -5.237223
  225       -5.218137
  226       -5.175129
  227       -5.145244
  228       -5.119452
  229       -5.096843
  230       -5.089989
  231       -5.031888
  232       -4.985921
  233       -4.957649
  234       -4.938701
  235       -4.881732
  236       -4.862801
  237       -4.837945
  238       -4.781869
  239       -4.753829
  240       -4.727113
  241       -4.701512
  242       -4.688440
  243       -4.648610
  244       -4.616061
  245       -4.613246
  246       -4.579420
  247       -4.551661
  248       -4.530345
  249       -4.482050
  250       -4.441085
  251       -4.423629
  252       -4.410544
  253       -4.393364
  254       -4.332544
  255       -4.317322
  256       -4.304210
  257       -4.262696
  258       -4.256466
  259       -4.237513
  260       -4.234135
  261       -4.188816
  262       -4.159293
  263       -4.131874
  264       -4.089866
  265       -4.067748
  266       -4.041267
  267       -4.018502
  268       -3.995639
  269       -3.950826
  270       -3.937226
  271       -3.910838
  272       -3.902190
  273       -3.885932
  274       -3.865275
  275       -3.829982
  276       -3.813767
  277       -3.792451
  278       -3.772636
  279       -3.748749
  280       -3.715514
  281       -3.702177
  282       -3.672558
  283       -3.651051
  284       -3.632137
  285       -3.593754
  286       -3.576023
  287       -3.555832
  288       -3.545393
  289       -3.499059
  290       -3.471720
  291       -3.445705
  292       -3.438526
  293       -3.411783
  294       -3.404309
  295       -3.379577
  296       -3.352380
  297       -3.341990
  298       -3.298537
  299       -3.276697
  300       -3.257300
  301       -3.245731
  302       -3.238926
  303       -3.222168
  304       -3.201749
  305       -3.190167
  306       -3.181914
  307       -3.174253
  308       -3.142486
  309       -3.132359
  310       -3.102627
  311       -3.058366
  312       -3.037268
  313       -3.020849
  314       -3.005030
  315       -3.002124
  316       -2.963149
  317       -2.956726
  318       -2.947401
  319       -2.923691
  320       -2.897562
  321       -2.883634
  322       -2.872829
  323       -2.848995
  324       -2.837151
  325       -2.815130
  326       -2.784160
  327       -2.765007
  328       -2.746374
  329       -2.732019
  330       -2.703319
  331       -2.695256
  332       -2.653189
  333       -2.640144
  334       -2.626409
  335       -2.617534
  336       -2.611352
  337       -2.584181
  338       -2.571422
  339       -2.552603
  340       -2.524512
  341       -2.497461
  342       -2.491075
  343       -2.462167
  344       -2.448501
  345       -2.429237
  346       -2.407137
  347       -2.388473
  348       -2.360504
  349       -2.350240
  350       -2.342582
  351       -2.315465
  352       -2.305930
  353       -2.283316
  354       -2.267530
  355       -2.258218
  356       -2.221166
  357       -2.211699
  358       -2.200713
  359       -2.188779
  360       -2.179999
  361       -2.152141
  362       -2.143627
  363       -2.130692
  364       -2.107013
  365       -2.086008
  366       -2.061899
  367       -2.058562
  368       -2.044820
  369       -2.039702
  370       -2.006132
  371       -1.979504
  372       -1.976873
  373       -1.961223
  374       -1.945102
  375       -1.920282
  376       -1.911407
  377       -1.906585
  378       -1.884698
  379       -1.872767
  380       -1.849082
  381       -1.833774
  382       -1.818553
  383       -1.804116
  384       -1.797691
  385       -1.760681
  386       -1.754227
  387       -1.751710
  388       -1.720365
  389       -1.710829
  390       -1.680826
  391       -1.673342
  392       -1.656046
  393       -1.645528
  394       -1.627243
  395       -1.614588
  396       -1.602105
  397       -1.576951
  398       -1.560379
  399       -1.557827
  400       -1.544473
  401       -1.530452
  402       -1.510958
  403       -1.504827
  404       -1.496162
  405       -1.474043
  406       -1.455598
  407       -1.442709
  408       -1.434755
  409       -1.426023
  410       -1.406111
  411       -1.399253
  412       -1.378663
  413       -1.366110
  414       -1.344026
  415       -1.331304
  416       -1.320855
  417       -1.308843
  418       -1.293770
  419       -1.280367
  420       -1.276808
  421       -1.262888
  422       -1.230844
  423       -1.223152
  424       -1.208216
  425       -1.198382
  426       -1.185788
  427       -1.174377
  428       -1.148443
  429       -1.129898
  430       -1.121534
  431       -1.105753
  432       -1.087149
  433       -1.079956
  434       -1.064512
  435       -1.043300
  436       -1.034648
  437       -1.023943
  438       -0.990269
  439       -0.985791
  440       -0.979671
  441       -0.966559
  442       -0.950925
  443       -0.937721
  444       -0.932321
  445       -0.915380
  446       -0.893810
  447       -0.892682
  448       -0.885901
  449       -0.863879
  450       -0.849016
  451       -0.833448
  452       -0.820359
  453       -0.811480
  454       -0.801581
  455       -0.778899
  456       -0.762966
  457       -0.758485
  458       -0.754019
  459       -0.738122
  460       -0.719462
  461       -0.714469
  462       -0.698609
  463       -0.687485
  464       -0.669151
  465       -0.659168
  466       -0.640035
  467       -0.627663
  468       -0.600941
  469       -0.594428
  470       -0.590254
  471       -0.583443
  472       -0.562627
  473       -0.551167
  474       -0.545421
  475       -0.539825
  476       -0.510599
  477       -0.508748
  478       -0.496001
  479       -0.483702
  480       -0.467339
  481       -0.452965
  482       -0.442173
  483       -0.425144
  484       -0.412957
  485       -0.397737
  486       -0.395429
  487       -0.378655
  488       -0.371604
  489       -0.356126
  490       -0.346962
  491       -0.331969
  492       -0.327645
  493       -0.302389
  494       -0.295758
  495       -0.289965
  496       -0.284388
  497       -0.265299
  498       -0.255338
  499       -0.244778
  500       -0.226905
  501       -0.208596
  502       -0.192944
  503       -0.171982
  504       -0.155736
  505       -0.146640
  506       -0.142435
  507       -0.135465
  508       -0.130972
  509       -0.110932
  510       -0.097392
  511       -0.089307
  512       -0.070756
  513       -0.060027
  514       -0.054227
  515       -0.036139
  516       -0.020345
  517       -0.007851
  518        0.009008
  519        0.020337
  520        0.025418
  521        0.028243
  522        0.048902
  523        0.057882
  524        0.071929
  525        0.077977
  526        0.087011
  527        0.094192
  528        0.110953
  529        0.125344
  530        0.153470
  531        0.162249
  532        0.170302
  533        0.182210
  534        0.193982
  535        0.206390
  536        0.221758
  537        0.236741
  538        0.238891
  539        0.253363
  540        0.255975
  541        0.283665
  542        0.298762
  543        0.312044
  544        0.319485
  545        0.335114
  546        0.343645
  547        0.351897
  548        0.366817
  549        0.379680
  550        0.388909
  551        0.395428
  552        0.410171
  553        0.418608
  554        0.426223
  555        0.449899
  556        0.460051
  557        0.483502
  558        0.487101
  559        0.505150
  560        0.526234
  561        0.527235
  562        0.544798
  563        0.559190
  564        0.567495
  565        0.574185
  566        0.581912
  567        0.586791
  568        0.631599
  569        0.640130
  570        0.654757
  571        0.677369
  572        0.689184
  573        0.694340
  574        0.720987
  575        0.730432
  576        0.761997
  577        0.782805
  578        0.795900
  579        0.799332
  580        0.813106
  581        0.842422
  582        0.864120
  583        0.878930
  584        0.894430
  585        0.904724
  586        0.922705
  587        0.932645
  588        0.951578
  589        0.954126
  590        0.979757
  591        0.993648
  592        1.007490
  593        1.018016
  594        1.047426
  595        1.068155
  596        1.075689
  597        1.091882
  598        1.112192
  599        1.142498
  600        1.155421
  601        1.162668
  602        1.175392
  603        1.178001
  604        1.204671
  605        1.223099
  606        1.231146
  607        1.247134
  608        1.280779
  609        1.298787
  610        1.358977
  611        1.367435
  612        1.407836
  613        1.412926
  614        1.445868
  615        1.460580
  616        1.497602
  617        1.512114
  618        1.535294
  619        1.558646
  620        1.573669
  621        1.593829
  622        1.603448
  623        1.629045
  624        1.661390
  625        1.673298
  626        1.714007
  627        1.748922
  628        1.760579
  629        1.807948
  630        1.835080
  631        1.867520
  632        1.925942
  633        1.944631
  634        1.960889
  635        2.033728
  636        2.066152
  637        2.084380
  638        2.140046
  639        2.203969
  640        2.280474
  641        2.324378
  642        2.407735
  643        2.564762
  644        2.618392
  645        2.635278
  646        2.750676
  647        2.857570
  648        3.219272
  649        3.824162
  650        4.428255
  651        4.601084
  652        4.736509
  653        4.866179
  654        5.131714
  655        5.181012
  656        5.312014
  657        5.435238
  658        5.479835
  659        5.495832
  660        5.624590
  661        5.739599
  662        5.807659
  663        5.987339
  664        6.018655
  665        6.177982
  666        6.246681
  667        6.282056
  668        6.320742
  669        6.372833
  670        6.456574
  671        6.536321
  672        6.562126
  673        6.624771
  674        6.686333
  675        6.726377
  676        6.812279
  677        6.893358
  678        6.961062
  679        6.982476
  680        7.012904
  681        7.070073
  682        7.121069
  683        7.143125
  684        7.207302
  685        7.251439
  686        7.303095
  687        7.323821
  688        7.342694
  689        7.418443
  690        7.454770
  691        7.477928
  692        7.544944
  693        7.570092
  694        7.581651
  695        7.610935
  696        7.645043
  697        7.712935
  698        7.739539
  699        7.779518
  700        7.812246
  701        7.837699
  702        7.881539
  703        7.936312
  704        7.968638
  705        7.979606
  706        8.032134
  707        8.094565
  708        8.144693
  709        8.164412
  710        8.220769
  711        8.238306
  712        8.271958
  713        8.322532
  714        8.344250
  715        8.393291
  716        8.420148
  717        8.445723
  718        8.472969
  719        8.520573
  720        8.546750
  721        8.568795
  722        8.593289
  723        8.603025
  724        8.648473
  725        8.686778
  726        8.716441
  727        8.719056
  728        8.777954
  729        8.807517
  730        8.830748
  731        8.846989
  732        8.874991
  733        8.915503
  734        8.931410
  735        8.960665
  736        8.989475
  737        8.999534
  738        9.023680
  739        9.038365
  740        9.052636
  741        9.095355
  742        9.107637
  743        9.148037
  744        9.192993
  745        9.214162
  746        9.242867
  747        9.265468
  748        9.277394
  749        9.304844
  750        9.324567
  751        9.351698
  752        9.376055
  753        9.397893
  754        9.406365
  755        9.442474
  756        9.476553
  757        9.508760
  758        9.536098
  759        9.577117
  760        9.609593
  761        9.628962
  762        9.660475
  763        9.681306
  764        9.708757
  765        9.733477
  766        9.755018
  767        9.791390
  768        9.805679
  769        9.846161
  770        9.874257
  771        9.908775
  772        9.930441
  773        9.963482
  774        9.976660
  775       10.007059
  776       10.019588
  777       10.060707
  778       10.089575
  779       10.110200
  780       10.129393
  781       10.154985
  782       10.196307
  783       10.212884
  784       10.243584
