       N       E                     dE             d eps       ncg     rms          rms(c)
DAV:   1     0.776821605989E+04    0.77682E+04   -0.58998E+05  1584   0.124E+03
DAV:   2    -0.132316985928E+04   -0.90914E+04   -0.88494E+04  1872   0.323E+02
DAV:   3    -0.203707978474E+04   -0.71391E+03   -0.70781E+03  1808   0.976E+01
DAV:   4    -0.205211754248E+04   -0.15038E+02   -0.14970E+02  1880   0.144E+01
DAV:   5    -0.205248045456E+04   -0.36291E+00   -0.36219E+00  1808   0.207E+00    0.123E+02
RMM:   6    -0.178876281228E+04    0.26372E+03   -0.11255E+03  1568   0.325E+01    0.489E+01
RMM:   7    -0.178531171356E+04    0.34511E+01   -0.43506E+01  1590   0.554E+00    0.256E+01
RMM:   8    -0.178506742054E+04    0.24429E+00   -0.10268E+01  1569   0.404E+00    0.160E+01
RMM:   9    -0.178454895794E+04    0.51846E+00   -0.37352E+00  1570   0.125E+00    0.561E+00
RMM:  10    -0.178426447703E+04    0.28448E+00   -0.11041E+00  1568   0.954E-01    0.338E+00
RMM:  11    -0.178413808371E+04    0.12639E+00   -0.34561E-01  1571   0.448E-01    0.204E+00
RMM:  12    -0.178407923076E+04    0.58853E-01   -0.71324E-02  1592   0.196E-01    0.145E+00
RMM:  13    -0.178401646538E+04    0.62765E-01   -0.66382E-02  1568   0.197E-01    0.867E-01
RMM:  14    -0.178399559312E+04    0.20872E-01   -0.34853E-02  1602   0.120E-01    0.434E-01
RMM:  15    -0.178398941925E+04    0.61739E-02   -0.10574E-02  1551   0.680E-02    0.232E-01
RMM:  16    -0.178398786434E+04    0.15549E-02   -0.46646E-03  1473   0.438E-02    0.643E-02
RMM:  17    -0.178398787254E+04   -0.82043E-05   -0.37903E-04  1086   0.150E-02
    1 T=  4001. E= -.16588202E+04 F= -.17839879E+04 E0= -.17839865E+04  EK= 0.12517E+03 SP= 0.00E+00 SK= 0.46E-07
       N       E                     dE             d eps       ncg     rms          rms(c)
DAV:   1    -0.178397426557E+04    0.13599E-01   -0.15264E+02  1680   0.168E+01    0.411E+00
RMM:   2    -0.178428833124E+04   -0.31407E+00   -0.38685E+00  1568   0.237E+00    0.140E+00
RMM:   3    -0.178424511595E+04    0.43215E-01   -0.12058E-01  1576   0.364E-01    0.959E-01
RMM:   4    -0.178424380672E+04    0.13092E-02   -0.56353E-02  1568   0.168E-01    0.239E+00
RMM:   5    -0.178422795869E+04    0.15848E-01   -0.42850E-02  1568   0.158E-01    0.495E-01
RMM:   6    -0.178422889172E+04   -0.93303E-03   -0.31969E-03  1547   0.597E-02    0.400E-01
RMM:   7    -0.178422641141E+04    0.24803E-02   -0.13990E-03  1406   0.273E-02    0.291E-01
RMM:   8    -0.178422492612E+04    0.14853E-02   -0.83483E-04  1270   0.195E-02    0.207E-01
RMM:   9    -0.178422418473E+04    0.74138E-03   -0.37087E-04  1029   0.131E-02    0.139E-01
RMM:  10    -0.178422377524E+04    0.40950E-03   -0.60490E-04  1263   0.163E-02    0.309E-02
RMM:  11    -0.178422378315E+04   -0.79153E-05   -0.40359E-05   862   0.612E-03
    2 T=  4009. E= -.16588205E+04 F= -.17842238E+04 E0= -.17842220E+04  EK= 0.12540E+03 SP= 0.11E-02 SK= 0.33E-05
       N       E                     dE             d eps       ncg     rms          rms(c)
DAV:   1    -0.178432760234E+04   -0.10383E+00   -0.70358E-01  1840   0.363E+00    0.653E-01
RMM:   2    -0.178439111405E+04   -0.63512E-01   -0.67735E-01  1568   0.977E-01    0.457E-01
RMM:   3    -0.178438603833E+04    0.50757E-02   -0.12088E-02  1688   0.974E-02    0.334E-01
RMM:   4    -0.178438545234E+04    0.58598E-03   -0.15853E-03  1497   0.306E-02    0.290E-01
RMM:   5    -0.178438450628E+04    0.94606E-03   -0.28510E-03  1560   0.499E-02    0.125E-01
RMM:   6    -0.178438447832E+04    0.27959E-04   -0.14377E-04   922   0.123E-02
    3 T=  4014. E= -.16588202E+04 F= -.17843845E+04 E0= -.17843825E+04  EK= 0.12556E+03 SP= 0.90E-02 SK= 0.28E-04
       N       E                     dE             d eps       ncg     rms          rms(c)
DAV:   1    -0.178446754889E+04   -0.83043E-01   -0.24693E-01  2824   0.322E+00    0.190E-01
RMM:   2    -0.178448344610E+04   -0.15897E-01   -0.16332E-01  1568   0.406E-01    0.123E-01
RMM:   3    -0.178448374357E+04   -0.29748E-03   -0.74826E-03  1799   0.680E-02    0.124E-01
RMM:   4    -0.178448364538E+04    0.98191E-04   -0.36418E-04  1103   0.150E-02
    4 T=  4016. E= -.16588202E+04 F= -.17844836E+04 E0= -.17844817E+04  EK= 0.12564E+03 SP= 0.28E-01 SK= 0.10E-03
       N       E                     dE             d eps       ncg     rms          rms(c)
DAV:   1    -0.178452650302E+04   -0.42759E-01   -0.95436E-02  2912   0.319E+00    0.109E-01
RMM:   2    -0.178453647534E+04   -0.99723E-02   -0.10081E-01  1568   0.320E-01    0.148E-01
RMM:   3    -0.178453676597E+04   -0.29063E-03   -0.56446E-03  1772   0.557E-02    0.125E-01
RMM:   4    -0.178453670586E+04    0.60116E-04   -0.23059E-04  1026   0.122E-02
    5 T=  4017. E= -.16588220E+04 F= -.17845367E+04 E0= -.17845343E+04  EK= 0.12566E+03 SP= 0.59E-01 SK= 0.23E-03
       N       E                     dE             d eps       ncg     rms          rms(c)
DAV:   1    -0.178455022372E+04   -0.13458E-01   -0.10019E-01  2760   0.317E+00    0.191E-01
RMM:   2    -0.178456065880E+04   -0.10435E-01   -0.11065E-01  1568   0.338E-01    0.158E-01
RMM:   3    -0.178456103421E+04   -0.37541E-03   -0.59252E-03  1783   0.575E-02    0.210E-01
RMM:   4    -0.178456069948E+04    0.33472E-03   -0.45146E-04  1080   0.164E-02    0.637E-02
RMM:   5    -0.178456067672E+04    0.22762E-04   -0.19143E-04   925   0.138E-02
    6 T=  4016. E= -.16588231E+04 F= -.17845607E+04 E0= -.17845584E+04  EK= 0.12563E+03 SP= 0.10E+00 SK= 0.41E-03
       N       E                     dE             d eps       ncg     rms          rms(c)
DAV:   1    -0.178456278614E+04   -0.20867E-02   -0.63966E-02  2912   0.318E+00    0.168E-01
RMM:   2    -0.178457250034E+04   -0.97142E-02   -0.10149E-01  1568   0.316E-01    0.971E-02
RMM:   3    -0.178457286945E+04   -0.36911E-03   -0.55314E-03  1788   0.551E-02    0.108E-01
RMM:   4    -0.178457275817E+04    0.11128E-03   -0.31522E-04  1046   0.136E-02    0.486E-02
RMM:   5    -0.178457272192E+04    0.36248E-04   -0.14733E-04   922   0.120E-02
    7 T=  4015. E= -.16588229E+04 F= -.17845727E+04 E0= -.17845705E+04  EK= 0.12559E+03 SP= 0.16E+00 SK= 0.63E-03
       N       E                     dE             d eps       ncg     rms          rms(c)
DAV:   1    -0.178458246994E+04   -0.97118E-02   -0.65723E-02  2864   0.316E+00    0.995E-02
RMM:   2    -0.178459134624E+04   -0.88763E-02   -0.89970E-02  1568   0.307E-01    0.900E-02
RMM:   3    -0.178459163105E+04   -0.28481E-03   -0.49130E-03  1762   0.521E-02    0.754E-02
RMM:   4    -0.178459160289E+04    0.28153E-04   -0.22147E-04  1025   0.117E-02
    8 T=  4013. E= -.16588235E+04 F= -.17845916E+04 E0= -.17845892E+04  EK= 0.12554E+03 SP= 0.23E+00 SK= 0.87E-03
       N       E                     dE             d eps       ncg     rms          rms(c)
DAV:   1    -0.178462722135E+04   -0.35590E-01   -0.60189E-02  2872   0.314E+00    0.937E-02
RMM:   2    -0.178463532643E+04   -0.81051E-02   -0.81446E-02  1568   0.292E-01    0.114E-01
RMM:   3    -0.178463560074E+04   -0.27431E-03   -0.45818E-03  1768   0.493E-02    0.101E-01
RMM:   4    -0.178463558912E+04    0.11620E-04   -0.23890E-04   991   0.129E-02
    9 T=  4012. E= -.16588247E+04 F= -.17846356E+04 E0= -.17846341E+04  EK= 0.12550E+03 SP= 0.31E+00 SK= 0.11E-02
       N       E                     dE             d eps       ncg     rms          rms(c)
DAV:   1    -0.178471559911E+04   -0.79998E-01   -0.66611E-02  2880   0.313E+00    0.166E-01
RMM:   2    -0.178472440460E+04   -0.88055E-02   -0.93467E-02  1568   0.312E-01    0.110E-01
RMM:   3    -0.178472462878E+04   -0.22418E-03   -0.48575E-03  1781   0.522E-02    0.780E-02
RMM:   4    -0.178472460581E+04    0.22973E-04   -0.44850E-04  1132   0.182E-02
   10 T=  4012. E= -.16588253E+04 F= -.17847246E+04 E0= -.17847233E+04  EK= 0.12550E+03 SP= 0.39E+00 SK= 0.14E-02
       N       E                     dE             d eps       ncg     rms          rms(c)
DAV:   1    -0.178486776584E+04   -0.14314E+00   -0.83221E-02  2912   0.314E+00    0.141E-01
RMM:   2    -0.178487734555E+04   -0.95797E-02   -0.99083E-02  1568   0.316E-01    0.867E-02
RMM:   3    -0.178487760970E+04   -0.26415E-03   -0.50595E-03  1796   0.534E-02    0.613E-02
RMM:   4    -0.178487754955E+04    0.60146E-04   -0.31096E-04  1077   0.159E-02
   11 T=  4014. E= -.16588259E+04 F= -.17848775E+04 E0= -.17848761E+04  EK= 0.12556E+03 SP= 0.49E+00 SK= 0.17E-02
       N       E                     dE             d eps       ncg     rms          rms(c)
DAV:   1    -0.178509924336E+04   -0.22163E+00   -0.10291E-01  2832   0.313E+00    0.123E-01
RMM:   2    -0.178510953959E+04   -0.10296E-01   -0.10371E-01  1568   0.325E-01    0.128E-01
RMM:   3    -0.178510975767E+04   -0.21808E-03   -0.54992E-03  1792   0.559E-02    0.966E-02
RMM:   4    -0.178510968494E+04    0.72733E-04   -0.22652E-04  1024   0.126E-02
   12 T=  4018. E= -.16588280E+04 F= -.17851097E+04 E0= -.17851087E+04  EK= 0.12568E+03 SP= 0.60E+00 SK= 0.21E-02
       N       E                     dE             d eps       ncg     rms          rms(c)
DAV:   1    -0.178542085185E+04   -0.31109E+00   -0.86838E-02  2824   0.313E+00    0.116E-01
RMM:   2    -0.178543078780E+04   -0.99359E-02   -0.10057E-01  1569   0.313E-01    0.131E-01
RMM:   3    -0.178543106563E+04   -0.27783E-03   -0.58387E-03  1788   0.561E-02    0.943E-02
RMM:   4    -0.178543102582E+04    0.39805E-04   -0.21942E-04  1027   0.123E-02
   13 T=  4024. E= -.16588312E+04 F= -.17854310E+04 E0= -.17854305E+04  EK= 0.12588E+03 SP= 0.72E+00 SK= 0.28E-02
       N       E                     dE             d eps       ncg     rms          rms(c)
DAV:   1    -0.178583468040E+04   -0.40361E+00   -0.79745E-02  2928   0.313E+00    0.188E-01
RMM:   2    -0.178584449990E+04   -0.98195E-02   -0.10659E-01  1568   0.327E-01    0.113E-01
RMM:   3    -0.178584468966E+04   -0.18976E-03   -0.52644E-03  1798   0.555E-02    0.778E-02
RMM:   4    -0.178584459919E+04    0.90478E-04   -0.55463E-04  1277   0.210E-02
   14 T=  4033. E= -.16588348E+04 F= -.17858446E+04 E0= -.17858444E+04  EK= 0.12614E+03 SP= 0.86E+00 SK= 0.38E-02
       N       E                     dE             d eps       ncg     rms          rms(c)
DAV:   1    -0.178633566779E+04   -0.49098E+00   -0.75740E-02  2952   0.315E+00    0.132E-01
RMM:   2    -0.178634564997E+04   -0.99822E-02   -0.10285E-01  1568   0.320E-01    0.102E-01
RMM:   3    -0.178634589146E+04   -0.24148E-03   -0.52885E-03  1790   0.546E-02    0.761E-02
RMM:   4    -0.178634580097E+04    0.90486E-04   -0.36130E-04  1119   0.171E-02
   15 T=  4043. E= -.16588390E+04 F= -.17863458E+04 E0= -.17863457E+04  EK= 0.12647E+03 SP= 0.10E+01 SK= 0.54E-02
       N       E                     dE             d eps       ncg     rms          rms(c)
DAV:   1    -0.178691135265E+04   -0.56546E+00   -0.88295E-02  2840   0.315E+00    0.112E-01
RMM:   2    -0.178692109924E+04   -0.97466E-02   -0.99519E-02  1568   0.317E-01    0.979E-02
RMM:   3    -0.178692138170E+04   -0.28246E-03   -0.52509E-03  1803   0.543E-02    0.798E-02
RMM:   4    -0.178692130552E+04    0.76184E-04   -0.30662E-04  1076   0.157E-02
   16 T=  4055. E= -.16588444E+04 F= -.17869213E+04 E0= -.17869213E+04  EK= 0.12684E+03 SP= 0.12E+01 SK= 0.78E-02
       N       E                     dE             d eps       ncg     rms          rms(c)
DAV:   1    -0.178753849997E+04   -0.61712E+00   -0.11101E-01  2808   0.317E+00    0.141E-01
RMM:   2    -0.178754897265E+04   -0.10473E-01   -0.10863E-01  1568   0.331E-01    0.977E-02
RMM:   3    -0.178754925524E+04   -0.28259E-03   -0.53573E-03  1803   0.558E-02    0.746E-02
RMM:   4    -0.178754919215E+04    0.63090E-04   -0.34490E-04  1106   0.168E-02
   17 T=  4067. E= -.16588502E+04 F= -.17875492E+04 E0= -.17875492E+04  EK= 0.12722E+03 SP= 0.15E+01 SK= 0.12E-01
       N       E                     dE             d eps       ncg     rms          rms(c)
DAV:   1    -0.178818843062E+04   -0.63918E+00   -0.11308E-01  2816   0.319E+00    0.133E-01
RMM:   2    -0.178819948516E+04   -0.11055E-01   -0.11374E-01  1568   0.338E-01    0.985E-02
RMM:   3    -0.178819976729E+04   -0.28213E-03   -0.55892E-03  1806   0.572E-02    0.755E-02
RMM:   4    -0.178819969714E+04    0.70144E-04   -0.31484E-04  1089   0.158E-02
   18 T=  4078. E= -.16588565E+04 F= -.17881997E+04 E0= -.17881997E+04  EK= 0.12757E+03 SP= 0.18E+01 SK= 0.17E-01
       N       E                     dE             d eps       ncg     rms          rms(c)
DAV:   1    -0.178882703705E+04   -0.62727E+00   -0.10598E-01  2832   0.321E+00    0.107E-01
RMM:   2    -0.178883787315E+04   -0.10836E-01   -0.10984E-01  1568   0.332E-01    0.991E-02
RMM:   3    -0.178883818833E+04   -0.31517E-03   -0.56424E-03  1812   0.566E-02    0.814E-02
RMM:   4    -0.178883811404E+04    0.74283E-04   -0.30268E-04  1076   0.156E-02
   19 T=  4087. E= -.16588628E+04 F= -.17888381E+04 E0= -.17888381E+04  EK= 0.12784E+03 SP= 0.21E+01 SK= 0.24E-01
       N       E                     dE             d eps       ncg     rms          rms(c)
DAV:   1    -0.178941688246E+04   -0.57869E+00   -0.98283E-02  2824   0.321E+00    0.134E-01
RMM:   2    -0.178942744416E+04   -0.10562E-01   -0.10890E-01  1568   0.329E-01    0.924E-02
RMM:   3    -0.178942776582E+04   -0.32166E-03   -0.55971E-03  1807   0.561E-02    0.698E-02
RMM:   4    -0.178942770970E+04    0.56125E-04   -0.30543E-04  1075   0.158E-02
   20 T=  4092. E= -.16588682E+04 F= -.17894277E+04 E0= -.17894277E+04  EK= 0.12799E+03 SP= 0.25E+01 SK= 0.34E-01
       N       E                     dE             d eps       ncg     rms          rms(c)
DAV:   1    -0.178991997803E+04   -0.49221E+00   -0.10192E-01  2832   0.322E+00    0.131E-01
RMM:   2    -0.178993071958E+04   -0.10742E-01   -0.11032E-01  1568   0.332E-01    0.898E-02
RMM:   3    -0.178993102211E+04   -0.30253E-03   -0.55445E-03  1795   0.561E-02    0.669E-02
RMM:   4    -0.178993096319E+04    0.58919E-04   -0.29504E-04  1068   0.153E-02
   21 T=  4092. E= -.16588724E+04 F= -.17899310E+04 E0= -.17899310E+04  EK= 0.12799E+03 SP= 0.30E+01 SK= 0.45E-01
       N       E                     dE             d eps       ncg     rms          rms(c)
DAV:   1    -0.179030163310E+04   -0.37061E+00   -0.11496E-01  2816   0.324E+00    0.111E-01
RMM:   2    -0.179031296367E+04   -0.11331E-01   -0.11491E-01  1568   0.339E-01    0.977E-02
RMM:   3    -0.179031326541E+04   -0.30174E-03   -0.56618E-03  1799   0.573E-02    0.792E-02
RMM:   4    -0.179031319439E+04    0.71025E-04   -0.28561E-04  1066   0.151E-02
   22 T=  4085. E= -.16588753E+04 F= -.17903132E+04 E0= -.17903132E+04  EK= 0.12780E+03 SP= 0.36E+01 SK= 0.57E-01
       N       E                     dE             d eps       ncg     rms          rms(c)
DAV:   1    -0.179053380406E+04   -0.22054E+00   -0.10849E-01  2792   0.324E+00    0.112E-01
RMM:   2    -0.179054504665E+04   -0.11243E-01   -0.11417E-01  1568   0.333E-01    0.945E-02
RMM:   3    -0.179054538790E+04   -0.34126E-03   -0.58388E-03  1793   0.570E-02    0.754E-02
RMM:   4    -0.179054532465E+04    0.63255E-04   -0.30208E-04  1073   0.156E-02
   23 T=  4072. E= -.16588770E+04 F= -.17905453E+04 E0= -.17905453E+04  EK= 0.12739E+03 SP= 0.42E+01 SK= 0.70E-01
       N       E                     dE             d eps       ncg     rms          rms(c)
DAV:   1    -0.179059405453E+04   -0.48667E-01   -0.99071E-02  2816   0.324E+00    0.142E-01
RMM:   2    -0.179060482242E+04   -0.10768E-01   -0.11135E-01  1568   0.332E-01    0.886E-02
RMM:   3    -0.179060513560E+04   -0.31318E-03   -0.56659E-03  1794   0.564E-02    0.636E-02
RMM:   4    -0.179060507966E+04    0.55934E-04   -0.30281E-04  1080   0.156E-02
   24 T=  4052. E= -.16588765E+04 F= -.17906051E+04 E0= -.17906051E+04  EK= 0.12675E+03 SP= 0.49E+01 SK= 0.80E-01
       N       E                     dE             d eps       ncg     rms          rms(c)
DAV:   1    -0.179046859131E+04    0.13654E+00   -0.95643E-02  2840   0.324E+00    0.112E-01
RMM:   2    -0.179047902700E+04   -0.10436E-01   -0.10591E-01  1568   0.328E-01    0.874E-02
RMM:   3    -0.179047931455E+04   -0.28755E-03   -0.53553E-03  1794   0.551E-02    0.688E-02
RMM:   4    -0.179047925012E+04    0.64430E-04   -0.25553E-04  1042   0.142E-02
   25 T=  4025. E= -.16588740E+04 F= -.17904793E+04 E0= -.17904793E+04  EK= 0.12590E+03 SP= 0.56E+01 SK= 0.87E-01
       N       E                     dE             d eps       ncg     rms          rms(c)
DAV:   1    -0.179015414919E+04    0.32517E+00   -0.93712E-02  2816   0.323E+00    0.108E-01
RMM:   2    -0.179016446484E+04   -0.10316E-01   -0.10460E-01  1568   0.326E-01    0.924E-02
RMM:   3    -0.179016476525E+04   -0.30042E-03   -0.53459E-03  1780   0.549E-02    0.739E-02
RMM:   4    -0.179016470089E+04    0.64360E-04   -0.27891E-04  1065   0.151E-02
   26 T=  3991. E= -.16588699E+04 F= -.17901647E+04 E0= -.17901647E+04  EK= 0.12484E+03 SP= 0.64E+01 SK= 0.88E-01
       N       E                     dE             d eps       ncg     rms          rms(c)
DAV:   1    -0.178965608022E+04    0.50869E+00   -0.99999E-02  2816   0.321E+00    0.132E-01
RMM:   2    -0.178966675530E+04   -0.10675E-01   -0.10969E-01  1568   0.331E-01    0.862E-02
RMM:   3    -0.178966706717E+04   -0.31186E-03   -0.54461E-03  1794   0.558E-02    0.648E-02
RMM:   4    -0.178966701352E+04    0.53646E-04   -0.27920E-04  1060   0.151E-02
   27 T=  3952. E= -.16588638E+04 F= -.17896670E+04 E0= -.17896670E+04  EK= 0.12362E+03 SP= 0.71E+01 SK= 0.83E-01
       N       E                     dE             d eps       ncg     rms          rms(c)
DAV:   1    -0.178899155074E+04    0.67552E+00   -0.91792E-02  2800   0.320E+00    0.119E-01
RMM:   2    -0.178900214999E+04   -0.10599E-01   -0.10807E-01  1568   0.329E-01    0.917E-02
RMM:   3    -0.178900244371E+04   -0.29373E-03   -0.54317E-03  1782   0.551E-02    0.710E-02
RMM:   4    -0.178900237730E+04    0.66412E-04   -0.26824E-04  1052   0.147E-02
   28 T=  3909. E= -.16588566E+04 F= -.17890024E+04 E0= -.17890024E+04  EK= 0.12228E+03 SP= 0.78E+01 SK= 0.71E-01
       N       E                     dE             d eps       ncg     rms          rms(c)
DAV:   1    -0.178818587843E+04    0.81657E+00   -0.95711E-02  2816   0.317E+00    0.106E-01
RMM:   2    -0.178819604980E+04   -0.10171E-01   -0.10285E-01  1568   0.324E-01    0.893E-02
RMM:   3    -0.178819634284E+04   -0.29304E-03   -0.51720E-03  1793   0.541E-02    0.718E-02
RMM:   4    -0.178819628139E+04    0.61456E-04   -0.25318E-04  1033   0.144E-02
   29 T=  3864. E= -.16588485E+04 F= -.17881963E+04 E0= -.17881963E+04  EK= 0.12087E+03 SP= 0.84E+01 SK= 0.54E-01
       N       E                     dE             d eps       ncg     rms          rms(c)
DAV:   1    -0.178727092847E+04    0.92541E+00   -0.94715E-02  2800   0.315E+00    0.129E-01
RMM:   2    -0.178728103810E+04   -0.10110E-01   -0.10387E-01  1568   0.327E-01    0.883E-02
RMM:   3    -0.178728131426E+04   -0.27615E-03   -0.50392E-03  1796   0.540E-02    0.665E-02
RMM:   4    -0.178728125887E+04    0.55389E-04   -0.26898E-04  1046   0.149E-02
   30 T=  3819. E= -.16588403E+04 F= -.17872813E+04 E0= -.17872813E+04  EK= 0.11946E+03 SP= 0.89E+01 SK= 0.33E-01
       N       E                     dE             d eps       ncg     rms          rms(c)
DAV:   1    -0.178628248158E+04    0.99883E+00   -0.96858E-02  2776   0.313E+00    0.114E-01
RMM:   2    -0.178629295228E+04   -0.10471E-01   -0.10648E-01  1568   0.327E-01    0.862E-02
RMM:   3    -0.178629325427E+04   -0.30199E-03   -0.53077E-03  1797   0.549E-02    0.674E-02
RMM:   4    -0.178629319876E+04    0.55509E-04   -0.23343E-04  1019   0.137E-02
   31 T=  3776. E= -.16588323E+04 F= -.17862932E+04 E0= -.17862932E+04  EK= 0.11812E+03 SP= 0.93E+01 SK= 0.14E-01
       N       E                     dE             d eps       ncg     rms          rms(c)
DAV:   1    -0.178525790622E+04    0.10353E+01   -0.10591E-01  2840   0.310E+00    0.106E-01
RMM:   2    -0.178526836297E+04   -0.10457E-01   -0.10572E-01  1568   0.326E-01    0.925E-02
RMM:   3    -0.178526865415E+04   -0.29118E-03   -0.52567E-03  1803   0.547E-02    0.748E-02
RMM:   4    -0.178526859320E+04    0.60950E-04   -0.24948E-04  1027   0.142E-02
   32 T=  3737. E= -.16588253E+04 F= -.17852686E+04 E0= -.17852686E+04  EK= 0.11690E+03 SP= 0.95E+01 SK= 0.19E-02
       N       E                     dE             d eps       ncg     rms          rms(c)
DAV:   1    -0.178423209335E+04    0.10366E+01   -0.10202E-01  2824   0.307E+00    0.121E-01
RMM:   2    -0.178424214189E+04   -0.10049E-01   -0.10265E-01  1568   0.322E-01    0.858E-02
RMM:   3    -0.178424243959E+04   -0.29771E-03   -0.51086E-03  1792   0.541E-02    0.656E-02
RMM:   4    -0.178424239162E+04    0.47970E-04   -0.24976E-04  1031   0.143E-02
   33 T=  3704. E= -.16588195E+04 F= -.17842424E+04 E0= -.17842424E+04  EK= 0.11587E+03 SP= 0.95E+01 SK= 0.18E-02
       N       E                     dE             d eps       ncg     rms          rms(c)
DAV:   1    -0.178323768815E+04    0.10048E+01   -0.98106E-02  2832   0.305E+00    0.126E-01
RMM:   2    -0.178324765338E+04   -0.99652E-02   -0.10200E-01  1568   0.321E-01    0.841E-02
RMM:   3    -0.178324793249E+04   -0.27912E-03   -0.50109E-03  1790   0.538E-02    0.634E-02
RMM:   4    -0.178324788195E+04    0.50540E-04   -0.24491E-04  1033   0.141E-02
   34 T=  3679. E= -.16588152E+04 F= -.17832479E+04 E0= -.17832479E+04  EK= 0.11508E+03 SP= 0.93E+01 SK= 0.19E-01
       N       E                     dE             d eps       ncg     rms          rms(c)
DAV:   1    -0.178230337337E+04    0.94456E+00   -0.97717E-02  2824   0.304E+00    0.991E-02
RMM:   2    -0.178231325056E+04   -0.98772E-02   -0.99661E-02  1568   0.315E-01    0.885E-02
RMM:   3    -0.178231354016E+04   -0.28960E-03   -0.50822E-03  1794   0.532E-02    0.717E-02
RMM:   4    -0.178231348458E+04    0.55577E-04   -0.22463E-04  1013   0.133E-02
   35 T=  3663. E= -.16588128E+04 F= -.17823135E+04 E0= -.17823135E+04  EK= 0.11458E+03 SP= 0.89E+01 SK= 0.58E-01
       N       E                     dE             d eps       ncg     rms          rms(c)
DAV:   1    -0.178145554362E+04    0.85800E+00   -0.98643E-02  2832   0.302E+00    0.113E-01
RMM:   2    -0.178146518543E+04   -0.96418E-02   -0.98100E-02  1568   0.315E-01    0.883E-02
RMM:   3    -0.178146548136E+04   -0.29594E-03   -0.50282E-03  1786   0.532E-02    0.690E-02
RMM:   4    -0.178146543208E+04    0.49284E-04   -0.25882E-04  1032   0.146E-02
   36 T=  3657. E= -.16588129E+04 F= -.17814654E+04 E0= -.17814654E+04  EK= 0.11440E+03 SP= 0.81E+01 SK= 0.12E+00
       N       E                     dE             d eps       ncg     rms          rms(c)
DAV:   1    -0.178071452787E+04    0.75095E+00   -0.96725E-02  2816   0.302E+00    0.132E-01
RMM:   2    -0.178072429171E+04   -0.97638E-02   -0.10042E-01  1568   0.320E-01    0.844E-02
RMM:   3    -0.178072458223E+04   -0.29052E-03   -0.50027E-03  1785   0.536E-02    0.624E-02
RMM:   4    -0.178072453710E+04    0.45129E-04   -0.24605E-04  1034   0.141E-02
   37 T=  3663. E= -.16588145E+04 F= -.17807245E+04 E0= -.17807245E+04  EK= 0.11457E+03 SP= 0.71E+01 SK= 0.20E+00
       N       E                     dE             d eps       ncg     rms          rms(c)
DAV:   1    -0.178010019951E+04    0.62438E+00   -0.94815E-02  2824   0.302E+00    0.102E-01
RMM:   2    -0.178010995063E+04   -0.97511E-02   -0.98476E-02  1568   0.317E-01    0.935E-02
RMM:   3    -0.178011024179E+04   -0.29116E-03   -0.50722E-03  1793   0.532E-02    0.757E-02
RMM:   4    -0.178011018074E+04    0.61046E-04   -0.23944E-04  1021   0.140E-02
   38 T=  3680. E= -.16588186E+04 F= -.17801102E+04 E0= -.17801102E+04  EK= 0.11510E+03 SP= 0.59E+01 SK= 0.31E+00
       N       E                     dE             d eps       ncg     rms          rms(c)
DAV:   1    -0.177963034885E+04    0.47989E+00   -0.10730E-01  2808   0.302E+00    0.112E-01
RMM:   2    -0.177964030171E+04   -0.99529E-02   -0.10092E-01  1568   0.320E-01    0.919E-02
RMM:   3    -0.177964061821E+04   -0.31651E-03   -0.52425E-03  1791   0.538E-02    0.723E-02
RMM:   4    -0.177964056860E+04    0.49612E-04   -0.26239E-04  1042   0.148E-02
   39 T=  3709. E= -.16588253E+04 F= -.17796406E+04 E0= -.17796406E+04  EK= 0.11601E+03 SP= 0.44E+01 SK= 0.42E+00
       N       E                     dE             d eps       ncg     rms          rms(c)
DAV:   1    -0.177932130468E+04    0.31931E+00   -0.11729E-01  2784   0.303E+00    0.145E-01
RMM:   2    -0.177933160854E+04   -0.10304E-01   -0.10642E-01  1568   0.332E-01    0.874E-02
RMM:   3    -0.177933190028E+04   -0.29174E-03   -0.52246E-03  1792   0.548E-02    0.633E-02
RMM:   4    -0.177933185357E+04    0.46712E-04   -0.27328E-04  1048   0.150E-02
   40 T=  3750. E= -.16588337E+04 F= -.17793319E+04 E0= -.17793319E+04  EK= 0.11730E+03 SP= 0.27E+01 SK= 0.54E+00
       N       E                     dE             d eps       ncg     rms          rms(c)
DAV:   1    -0.177918853177E+04    0.14337E+00   -0.96971E-02  2792   0.305E+00    0.994E-02
RMM:   2    -0.177919847537E+04   -0.99436E-02   -0.10033E-01  1568   0.324E-01    0.919E-02
RMM:   3    -0.177919878310E+04   -0.30773E-03   -0.52099E-03  1799   0.537E-02    0.745E-02
RMM:   4    -0.177919872215E+04    0.60951E-04   -0.23180E-04  1011   0.137E-02
   41 T=  3803. E= -.16588445E+04 F= -.17791987E+04 E0= -.17791987E+04  EK= 0.11897E+03 SP= 0.74E+00 SK= 0.64E+00
       N       E                     dE             d eps       ncg     rms          rms(c)
DAV:   1    -0.177924138013E+04   -0.42597E-01   -0.10076E-01  2784   0.307E+00    0.108E-01
RMM:   2    -0.177925100326E+04   -0.96231E-02   -0.97376E-02  1568   0.321E-01    0.883E-02
RMM:   3    -0.177925132247E+04   -0.31921E-03   -0.51355E-03  1796   0.531E-02    0.694E-02
RMM:   4    -0.177925127482E+04    0.47644E-04   -0.25997E-04  1027   0.147E-02
   42 T=  3868. E= -.16588578E+04 F= -.17792513E+04 E0= -.17792513E+04  EK= 0.12100E+03 SP= -.13E+01 SK= 0.73E+00
       N       E                     dE             d eps       ncg     rms          rms(c)
DAV:   1    -0.177948273461E+04   -0.23141E+00   -0.86198E-02  2808   0.310E+00    0.142E-01
RMM:   2    -0.177949236370E+04   -0.96291E-02   -0.99735E-02  1568   0.324E-01    0.794E-02
RMM:   3    -0.177949268617E+04   -0.32246E-03   -0.52265E-03  1782   0.533E-02    0.559E-02
RMM:   4    -0.177949264512E+04    0.41044E-04   -0.25937E-04  1029   0.145E-02
   43 T=  3943. E= -.16588733E+04 F= -.17794926E+04 E0= -.17794926E+04  EK= 0.12335E+03 SP= -.35E+01 SK= 0.78E+00
       N       E                     dE             d eps       ncg     rms          rms(c)
DAV:   1    -0.177990572910E+04   -0.41304E+00   -0.93219E-02  2792   0.314E+00    0.104E-01
RMM:   2    -0.177991575024E+04   -0.10021E-01   -0.10117E-01  1568   0.330E-01    0.870E-02
RMM:   3    -0.177991606064E+04   -0.31041E-03   -0.52155E-03  1800   0.537E-02    0.690E-02
RMM:   4    -0.177991600583E+04    0.54808E-04   -0.23280E-04  1019   0.137E-02
   44 T=  4027. E= -.16588909E+04 F= -.17799160E+04 E0= -.17799160E+04  EK= 0.12596E+03 SP= -.57E+01 SK= 0.79E+00
       N       E                     dE             d eps       ncg     rms          rms(c)
DAV:   1    -0.178049206688E+04   -0.57601E+00   -0.10857E-01  2784   0.317E+00    0.106E-01
RMM:   2    -0.178050268758E+04   -0.10621E-01   -0.10722E-01  1568   0.339E-01    0.874E-02
RMM:   3    -0.178050303932E+04   -0.35174E-03   -0.55144E-03  1811   0.553E-02    0.699E-02
RMM:   4    -0.178050299168E+04    0.47640E-04   -0.25558E-04  1028   0.144E-02
   45 T=  4116. E= -.16589106E+04 F= -.17805030E+04 E0= -.17805030E+04  EK= 0.12876E+03 SP= -.79E+01 SK= 0.75E+00
       N       E                     dE             d eps       ncg     rms          rms(c)
DAV:   1    -0.178121072979E+04   -0.70769E+00   -0.11649E-01  2784   0.322E+00    0.142E-01
RMM:   2    -0.178122198317E+04   -0.11253E-01   -0.11589E-01  1568   0.351E-01    0.833E-02
RMM:   3    -0.178122234657E+04   -0.36340E-03   -0.58469E-03  1803   0.571E-02    0.604E-02
RMM:   4    -0.178122230315E+04    0.43411E-04   -0.27885E-04  1051   0.149E-02
   46 T=  4209. E= -.16589317E+04 F= -.17812223E+04 E0= -.17812223E+04  EK= 0.13165E+03 SP= -.10E+02 SK= 0.67E+00
       N       E                     dE             d eps       ncg     rms          rms(c)
DAV:   1    -0.178201615414E+04   -0.79381E+00   -0.99913E-02  2808   0.327E+00    0.111E-01
RMM:   2    -0.178202720023E+04   -0.11046E-01   -0.11170E-01  1568   0.347E-01    0.872E-02
RMM:   3    -0.178202755400E+04   -0.35378E-03   -0.57985E-03  1802   0.562E-02    0.686E-02
RMM:   4    -0.178202749997E+04    0.54030E-04   -0.25711E-04  1042   0.141E-02
   47 T=  4300. E= -.16589536E+04 F= -.17820275E+04 E0= -.17820275E+04  EK= 0.13450E+03 SP= -.12E+02 SK= 0.54E+00
       N       E                     dE             d eps       ncg     rms          rms(c)
DAV:   1    -0.178284843882E+04   -0.82088E+00   -0.10065E-01  2792   0.331E+00    0.110E-01
RMM:   2    -0.178285937536E+04   -0.10937E-01   -0.11040E-01  1568   0.347E-01    0.863E-02
RMM:   3    -0.178285973703E+04   -0.36167E-03   -0.56800E-03  1812   0.559E-02    0.680E-02
RMM:   4    -0.178285969137E+04    0.45655E-04   -0.25965E-04  1042   0.144E-02
   48 T=  4385. E= -.16589749E+04 F= -.17828597E+04 E0= -.17828597E+04  EK= 0.13717E+03 SP= -.14E+02 SK= 0.40E+00
       N       E                     dE             d eps       ncg     rms          rms(c)
DAV:   1    -0.178364125177E+04   -0.78151E+00   -0.12749E-01  2760   0.335E+00    0.144E-01
RMM:   2    -0.178365316802E+04   -0.11916E-01   -0.12248E-01  1568   0.364E-01    0.856E-02
RMM:   3    -0.178365352598E+04   -0.35796E-03   -0.59467E-03  1812   0.581E-02    0.629E-02
RMM:   4    -0.178365348121E+04    0.44773E-04   -0.28266E-04  1053   0.150E-02
   49 T=  4460. E= -.16589945E+04 F= -.17836535E+04 E0= -.17836535E+04  EK= 0.13951E+03 SP= -.15E+02 SK= 0.25E+00
       N       E                     dE             d eps       ncg     rms          rms(c)
DAV:   1    -0.178432799741E+04   -0.67447E+00   -0.13867E-01  2800   0.339E+00    0.118E-01
RMM:   2    -0.178434066166E+04   -0.12664E-01   -0.12810E-01  1568   0.371E-01    0.933E-02
RMM:   3    -0.178434103837E+04   -0.37671E-03   -0.63197E-03  1811   0.596E-02    0.741E-02
RMM:   4    -0.178434098167E+04    0.56699E-04   -0.28001E-04  1067   0.146E-02
   50 T=  4519. E= -.16590114E+04 F= -.17843410E+04 E0= -.17843410E+04  EK= 0.14137E+03 SP= -.16E+02 SK= 0.12E+00
       N       E                     dE             d eps       ncg     rms          rms(c)
DAV:   1    -0.178484567904E+04   -0.50464E+00   -0.11452E-01  2816   0.342E+00    0.111E-01
RMM:   2    -0.178485802911E+04   -0.12350E-01   -0.12463E-01  1568   0.362E-01    0.901E-02
RMM:   3    -0.178485846617E+04   -0.43706E-03   -0.66054E-03  1820   0.596E-02    0.722E-02
RMM:   4    -0.178485841533E+04    0.50839E-04   -0.27646E-04  1054   0.146E-02
   51 T=  4560. E= -.16590246E+04 F= -.17848584E+04 E0= -.17848584E+04  EK= 0.14263E+03 SP= -.17E+02 SK= 0.32E-01
       N       E                     dE             d eps       ncg     rms          rms(c)
DAV:   1    -0.178513816891E+04   -0.27970E+00   -0.11768E-01  2792   0.343E+00    0.142E-01
RMM:   2    -0.178515036398E+04   -0.12195E-01   -0.12515E-01  1568   0.366E-01    0.868E-02
RMM:   3    -0.178515075804E+04   -0.39406E-03   -0.62615E-03  1812   0.593E-02    0.641E-02
RMM:   4    -0.178515071149E+04    0.46556E-04   -0.29597E-04  1061   0.153E-02
   52 T=  4577. E= -.16590325E+04 F= -.17851507E+04 E0= -.17851507E+04  EK= 0.14317E+03 SP= -.17E+02 SK= 0.80E-05
       N       E                     dE             d eps       ncg     rms          rms(c)
DAV:   1    -0.178516350990E+04   -0.12752E-01   -0.13587E-01  2784   0.345E+00    0.124E-01
RMM:   2    -0.178517627977E+04   -0.12770E-01   -0.12962E-01  1568   0.371E-01    0.910E-02
RMM:   3    -0.178517666626E+04   -0.38650E-03   -0.63772E-03  1811   0.601E-02    0.712E-02
RMM:   4    -0.178517661008E+04    0.56188E-04   -0.29009E-04  1066   0.149E-02
   53 T=  4570. E= -.16590348E+04 F= -.17851766E+04 E0= -.17851766E+04  EK= 0.14295E+03 SP= -.17E+02 SK= 0.31E-01
       N       E                     dE             d eps       ncg     rms          rms(c)
DAV:   1    -0.178489925252E+04    0.27741E+00   -0.13062E-01  2800   0.344E+00    0.110E-01
RMM:   2    -0.178491196691E+04   -0.12714E-01   -0.12822E-01  1568   0.364E-01    0.923E-02
RMM:   3    -0.178491239023E+04   -0.42332E-03   -0.66234E-03  1813   0.603E-02    0.751E-02
RMM:   4    -0.178491233501E+04    0.55218E-04   -0.29227E-04  1068   0.148E-02
   54 T=  4538. E= -.16590317E+04 F= -.17849123E+04 E0= -.17849123E+04  EK= 0.14194E+03 SP= -.16E+02 SK= 0.12E+00
       N       E                     dE             d eps       ncg     rms          rms(c)
DAV:   1    -0.178433976284E+04    0.57263E+00   -0.13485E-01  2792   0.342E+00    0.137E-01
RMM:   2    -0.178435274570E+04   -0.12983E-01   -0.13273E-01  1568   0.368E-01    0.905E-02
RMM:   3    -0.178435316113E+04   -0.41543E-03   -0.66703E-03  1812   0.611E-02    0.690E-02
RMM:   4    -0.178435310938E+04    0.51746E-04   -0.32020E-04  1077   0.157E-02
   55 T=  4482. E= -.16590225E+04 F= -.17843531E+04 E0= -.17843531E+04  EK= 0.14019E+03 SP= -.15E+02 SK= 0.26E+00
       N       E                     dE             d eps       ncg     rms          rms(c)
DAV:   1    -0.178350362422E+04    0.84954E+00   -0.14874E-01  2784   0.340E+00    0.129E-01
RMM:   2    -0.178351682209E+04   -0.13198E-01   -0.13435E-01  1568   0.371E-01    0.945E-02
RMM:   3    -0.178351719161E+04   -0.36952E-03   -0.64836E-03  1804   0.611E-02    0.743E-02
RMM:   4    -0.178351713123E+04    0.60379E-04   -0.31470E-04  1081   0.154E-02
   56 T=  4404. E= -.16590083E+04 F= -.17835171E+04 E0= -.17835171E+04  EK= 0.13777E+03 SP= -.14E+02 SK= 0.41E+00
       N       E                     dE             d eps       ncg     rms          rms(c)
DAV:   1    -0.178242884911E+04    0.10883E+01   -0.13700E-01  2832   0.336E+00    0.109E-01
RMM:   2    -0.178244127440E+04   -0.12425E-01   -0.12547E-01  1568   0.358E-01    0.949E-02
RMM:   3    -0.178244164793E+04   -0.37353E-03   -0.62551E-03  1796   0.595E-02    0.776E-02
RMM:   4    -0.178244158540E+04    0.62530E-04   -0.31374E-04  1078   0.154E-02
   57 T=  4309. E= -.16589899E+04 F= -.17824416E+04 E0= -.17824416E+04  EK= 0.13480E+03 SP= -.12E+02 SK= 0.57E+00
       N       E                     dE             d eps       ncg     rms          rms(c)
DAV:   1    -0.178116734888E+04    0.12743E+01   -0.12952E-01  2816   0.331E+00    0.136E-01
RMM:   2    -0.178117936730E+04   -0.12018E-01   -0.12318E-01  1568   0.353E-01    0.866E-02
RMM:   3    -0.178117975357E+04   -0.38627E-03   -0.62849E-03  1811   0.593E-02    0.653E-02
RMM:   4    -0.178117970401E+04    0.49562E-04   -0.31195E-04  1082   0.154E-02
   58 T=  4202. E= -.16589683E+04 F= -.17811797E+04 E0= -.17811797E+04  EK= 0.13144E+03 SP= -.99E+01 SK= 0.69E+00
       N       E                     dE             d eps       ncg     rms          rms(c)
DAV:   1    -0.177978533154E+04    0.13944E+01   -0.13296E-01  2800   0.327E+00    0.127E-01
RMM:   2    -0.177979732883E+04   -0.11997E-01   -0.12245E-01  1568   0.352E-01    0.929E-02
RMM:   3    -0.177979766431E+04   -0.33548E-03   -0.60570E-03  1805   0.588E-02    0.720E-02
RMM:   4    -0.177979760002E+04    0.64292E-04   -0.31263E-04  1084   0.154E-02
   59 T=  4087. E= -.16589452E+04 F= -.17797976E+04 E0= -.17797976E+04  EK= 0.12786E+03 SP= -.78E+01 SK= 0.77E+00
       N       E                     dE             d eps       ncg     rms          rms(c)
DAV:   1    -0.177835576669E+04    0.14419E+01   -0.13138E-01  2816   0.321E+00    0.108E-01
RMM:   2    -0.177836708018E+04   -0.11313E-01   -0.11441E-01  1568   0.342E-01    0.920E-02
RMM:   3    -0.177836741645E+04   -0.33626E-03   -0.57291E-03  1800   0.573E-02    0.748E-02
RMM:   4    -0.177836735735E+04    0.59092E-04   -0.29030E-04  1066   0.149E-02
   60 T=  3971. E= -.16589218E+04 F= -.17783674E+04 E0= -.17783674E+04  EK= 0.12422E+03 SP= -.56E+01 SK= 0.79E+00
       N       E                     dE             d eps       ncg     rms          rms(c)
DAV:   1    -0.177695230861E+04    0.14151E+01   -0.11251E-01  2784   0.315E+00    0.127E-01
RMM:   2    -0.177696300055E+04   -0.10692E-01   -0.10962E-01  1568   0.333E-01    0.888E-02
RMM:   3    -0.177696331967E+04   -0.31912E-03   -0.54654E-03  1799   0.559E-02    0.679E-02
RMM:   4    -0.177696326757E+04    0.52105E-04   -0.29352E-04  1070   0.153E-02
   61 T=  3858. E= -.16588991E+04 F= -.17769633E+04 E0= -.17769632E+04  EK= 0.12069E+03 SP= -.34E+01 SK= 0.74E+00
       N       E                     dE             d eps       ncg     rms          rms(c)
DAV:   1    -0.177564552307E+04    0.13178E+01   -0.93696E-02  2832   0.310E+00    0.120E-01
RMM:   2    -0.177565561012E+04   -0.10087E-01   -0.10316E-01  1568   0.321E-01    0.837E-02
RMM:   3    -0.177565593541E+04   -0.32529E-03   -0.53644E-03  1798   0.547E-02    0.637E-02
RMM:   4    -0.177565588484E+04    0.50574E-04   -0.25676E-04  1045   0.142E-02
   62 T=  3754. E= -.16588778E+04 F= -.17756559E+04 E0= -.17756557E+04  EK= 0.11742E+03 SP= -.13E+01 SK= 0.64E+00
       N       E                     dE             d eps       ncg     rms          rms(c)
DAV:   1    -0.177449745218E+04    0.11585E+01   -0.87675E-02  2832   0.305E+00    0.106E-01
RMM:   2    -0.177450689990E+04   -0.94477E-02   -0.95946E-02  1568   0.310E-01    0.842E-02
RMM:   3    -0.177450720318E+04   -0.30328E-03   -0.50041E-03  1805   0.530E-02    0.661E-02
RMM:   4    -0.177450715484E+04    0.48340E-04   -0.22729E-04  1022   0.134E-02
   63 T=  3662. E= -.16588594E+04 F= -.17745072E+04 E0= -.17745067E+04  EK= 0.11454E+03 SP= 0.61E+00 SK= 0.50E+00
       N       E                     dE             d eps       ncg     rms          rms(c)
DAV:   1    -0.177355884357E+04    0.94836E+00   -0.82708E-02  2840   0.301E+00    0.112E-01
RMM:   2    -0.177356786261E+04   -0.90190E-02   -0.92321E-02  1568   0.302E-01    0.807E-02
RMM:   3    -0.177356817136E+04   -0.30875E-03   -0.49018E-03  1794   0.522E-02    0.617E-02
RMM:   4    -0.177356812851E+04    0.42846E-04   -0.23865E-04  1023   0.139E-02
   64 T=  3585. E= -.16588444E+04 F= -.17735681E+04 E0= -.17735677E+04  EK= 0.11213E+03 SP= 0.22E+01 SK= 0.35E+00
       N       E                     dE             d eps       ncg     rms          rms(c)
DAV:   1    -0.177286745519E+04    0.70072E+00   -0.90927E-02  2824   0.299E+00    0.123E-01
RMM:   2    -0.177287656016E+04   -0.91050E-02   -0.93637E-02  1568   0.304E-01    0.781E-02
RMM:   3    -0.177287685444E+04   -0.29428E-03   -0.48255E-03  1805   0.524E-02    0.585E-02
RMM:   4    -0.177287681380E+04    0.40640E-04   -0.22336E-04  1015   0.133E-02
   65 T=  3526. E= -.16588334E+04 F= -.17728768E+04 E0= -.17728766E+04  EK= 0.11028E+03 SP= 0.36E+01 SK= 0.21E+00
       N       E                     dE             d eps       ncg     rms          rms(c)
DAV:   1    -0.177244652671E+04    0.43033E+00   -0.10045E-01  2808   0.297E+00    0.971E-02
RMM:   2    -0.177245576485E+04   -0.92381E-02   -0.93512E-02  1568   0.303E-01    0.874E-02
RMM:   3    -0.177245604066E+04   -0.27581E-03   -0.47655E-03  1796   0.524E-02    0.719E-02
RMM:   4    -0.177245598643E+04    0.54231E-04   -0.22753E-04  1021   0.135E-02
   66 T=  3486. E= -.16588271E+04 F= -.17724560E+04 E0= -.17724559E+04  EK= 0.10904E+03 SP= 0.45E+01 SK= 0.90E-01
       N       E                     dE             d eps       ncg     rms          rms(c)
DAV:   1    -0.177230321976E+04    0.15282E+00   -0.85223E-02  2832   0.295E+00    0.106E-01
RMM:   2    -0.177231221802E+04   -0.89983E-02   -0.91679E-02  1568   0.294E-01    0.820E-02
RMM:   3    -0.177231254046E+04   -0.32244E-03   -0.49818E-03  1786   0.526E-02    0.652E-02
RMM:   4    -0.177231249728E+04    0.43173E-04   -0.24291E-04  1035   0.140E-02
   67 T=  3466. E= -.16588255E+04 F= -.17723125E+04 E0= -.17723125E+04  EK= 0.10842E+03 SP= 0.50E+01 SK= 0.19E-01
       N       E                     dE             d eps       ncg     rms          rms(c)
DAV:   1    -0.177242825163E+04   -0.11571E+00   -0.90719E-02  2848   0.295E+00    0.137E-01
RMM:   2    -0.177243712525E+04   -0.88736E-02   -0.91961E-02  1568   0.297E-01    0.701E-02
RMM:   3    -0.177243743306E+04   -0.30781E-03   -0.47544E-03  1791   0.523E-02    0.498E-02
RMM:   4    -0.177243740404E+04    0.29016E-04   -0.21395E-04  1008   0.130E-02
   68 T=  3466. E= -.16588280E+04 F= -.17724374E+04 E0= -.17724374E+04  EK= 0.10843E+03 SP= 0.52E+01 SK= 0.79E-03
       N       E                     dE             d eps       ncg     rms          rms(c)
DAV:   1    -0.177279803233E+04   -0.36060E+00   -0.10213E-01  2800   0.297E+00    0.934E-02
RMM:   2    -0.177280701033E+04   -0.89780E-02   -0.90743E-02  1569   0.295E-01    0.850E-02
RMM:   3    -0.177280727208E+04   -0.26176E-03   -0.45662E-03  1779   0.511E-02    0.702E-02
RMM:   4    -0.177280722157E+04    0.50514E-04   -0.21084E-04  1010   0.129E-02
   69 T=  3485. E= -.16588349E+04 F= -.17728072E+04 E0= -.17728072E+04  EK= 0.10903E+03 SP= 0.49E+01 SK= 0.36E-01
       N       E                     dE             d eps       ncg     rms          rms(c)
DAV:   1    -0.177337621080E+04   -0.56894E+00   -0.95894E-02  2816   0.298E+00    0.984E-02
RMM:   2    -0.177338503978E+04   -0.88290E-02   -0.89436E-02  1568   0.290E-01    0.825E-02
RMM:   3    -0.177338535705E+04   -0.31728E-03   -0.48056E-03  1784   0.517E-02    0.669E-02
RMM:   4    -0.177338531940E+04    0.37653E-04   -0.24032E-04  1030   0.138E-02
   70 T=  3522. E= -.16588464E+04 F= -.17733853E+04 E0= -.17733853E+04  EK= 0.11019E+03 SP= 0.42E+01 SK= 0.12E+00
       N       E                     dE             d eps       ncg     rms          rms(c)
DAV:   1    -0.177411345006E+04   -0.72809E+00   -0.98496E-02  2832   0.301E+00    0.149E-01
RMM:   2    -0.177412273027E+04   -0.92802E-02   -0.96877E-02  1568   0.303E-01    0.752E-02
RMM:   3    -0.177412303987E+04   -0.30959E-03   -0.49512E-03  1800   0.533E-02    0.519E-02
RMM:   4    -0.177412300991E+04    0.29957E-04   -0.24461E-04  1043   0.137E-02
   71 T=  3575. E= -.16588612E+04 F= -.17741230E+04 E0= -.17741230E+04  EK= 0.11183E+03 SP= 0.32E+01 SK= 0.24E+00
       N       E                     dE             d eps       ncg     rms          rms(c)
DAV:   1    -0.177495261486E+04   -0.82957E+00   -0.11328E-01  2840   0.305E+00    0.101E-01
RMM:   2    -0.177496252721E+04   -0.99124E-02   -0.10022E-01  1568   0.312E-01    0.909E-02
RMM:   3    -0.177496281301E+04   -0.28580E-03   -0.49958E-03  1795   0.539E-02    0.753E-02
RMM:   4    -0.177496275668E+04    0.56330E-04   -0.23356E-04  1034   0.134E-02
   72 T=  3641. E= -.16588789E+04 F= -.17749628E+04 E0= -.17749628E+04  EK= 0.11389E+03 SP= 0.18E+01 SK= 0.37E+00
       N       E                     dE             d eps       ncg     rms          rms(c)
DAV:   1    -0.177583132102E+04   -0.86851E+00   -0.10610E-01  2816   0.308E+00    0.100E-01
RMM:   2    -0.177584120589E+04   -0.98849E-02   -0.99829E-02  1568   0.308E-01    0.882E-02
RMM:   3    -0.177584155674E+04   -0.35085E-03   -0.53548E-03  1788   0.544E-02    0.725E-02
RMM:   4    -0.177584151388E+04    0.42858E-04   -0.25185E-04  1044   0.140E-02
   73 T=  3717. E= -.16588987E+04 F= -.17758415E+04 E0= -.17758415E+04  EK= 0.11627E+03 SP= 0.17E+00 SK= 0.50E+00
       N       E                     dE             d eps       ncg     rms          rms(c)
DAV:   1    -0.177668420177E+04   -0.84265E+00   -0.11227E-01  2824   0.312E+00    0.163E-01
RMM:   2    -0.177669509821E+04   -0.10896E-01   -0.11368E-01  1568   0.328E-01    0.813E-02
RMM:   3    -0.177669543918E+04   -0.34097E-03   -0.56486E-03  1806   0.574E-02    0.558E-02
RMM:   4    -0.177669540363E+04    0.35547E-04   -0.28480E-04  1074   0.148E-02
   74 T=  3800. E= -.16589192E+04 F= -.17766954E+04 E0= -.17766954E+04  EK= 0.11886E+03 SP= -.17E+01 SK= 0.61E+00
       N       E                     dE             d eps       ncg     rms          rms(c)
DAV:   1    -0.177744965931E+04   -0.75422E+00   -0.12778E-01  2848   0.317E+00    0.113E-01
RMM:   2    -0.177746143091E+04   -0.11772E-01   -0.11912E-01  1568   0.341E-01    0.979E-02
RMM:   3    -0.177746173558E+04   -0.30467E-03   -0.56548E-03  1802   0.583E-02    0.799E-02
RMM:   4    -0.177746167234E+04    0.63237E-04   -0.27235E-04  1066   0.143E-02
   75 T=  3885. E= -.16589401E+04 F= -.17774617E+04 E0= -.17774617E+04  EK= 0.12154E+03 SP= -.37E+01 SK= 0.69E+00
       N       E                     dE             d eps       ncg     rms          rms(c)
DAV:   1    -0.177807187032E+04   -0.61013E+00   -0.10040E-01  2832   0.320E+00    0.965E-02
RMM:   2    -0.177808324499E+04   -0.11375E-01   -0.11451E-01  1568   0.328E-01    0.949E-02
RMM:   3    -0.177808366539E+04   -0.42040E-03   -0.62130E-03  1814   0.584E-02    0.795E-02
RMM:   4    -0.177808361177E+04    0.53623E-04   -0.27931E-04  1063   0.146E-02
   76 T=  3971. E= -.16589606E+04 F= -.17780836E+04 E0= -.17780836E+04  EK= 0.12422E+03 SP= -.58E+01 SK= 0.73E+00
       N       E                     dE             d eps       ncg     rms          rms(c)
DAV:   1    -0.177850312937E+04   -0.41946E+00   -0.99218E-02  2824   0.322E+00    0.165E-01
RMM:   2    -0.177851404205E+04   -0.10913E-01   -0.11413E-01  1568   0.333E-01    0.827E-02
RMM:   3    -0.177851440433E+04   -0.36228E-03   -0.58132E-03  1801   0.574E-02    0.556E-02
RMM:   4    -0.177851436894E+04    0.35391E-04   -0.29260E-04  1074   0.151E-02
   77 T=  4052. E= -.16589790E+04 F= -.17785144E+04 E0= -.17785144E+04  EK= 0.12676E+03 SP= -.80E+01 SK= 0.72E+00
       N       E                     dE             d eps       ncg     rms          rms(c)
DAV:   1    -0.177870886428E+04   -0.19446E+00   -0.87094E-02  2872   0.327E+00    0.119E-01
RMM:   2    -0.177871976748E+04   -0.10903E-01   -0.11093E-01  1568   0.334E-01    0.944E-02
RMM:   3    -0.177872006962E+04   -0.30214E-03   -0.55087E-03  1785   0.559E-02    0.748E-02
RMM:   4    -0.177872000526E+04    0.64360E-04   -0.25908E-04  1056   0.141E-02
   78 T=  4127. E= -.16589951E+04 F= -.17787200E+04 E0= -.17787200E+04  EK= 0.12909E+03 SP= -.10E+02 SK= 0.68E+00
       N       E                     dE             d eps       ncg     rms          rms(c)
DAV:   1    -0.177867222326E+04    0.47846E-01   -0.93108E-02  2832   0.329E+00    0.101E-01
RMM:   2    -0.177868321587E+04   -0.10993E-01   -0.11060E-01  1568   0.335E-01    0.102E-01
RMM:   3    -0.177868355825E+04   -0.34238E-03   -0.56001E-03  1800   0.561E-02    0.860E-02
RMM:   4    -0.177868349251E+04    0.65737E-04   -0.28455E-04  1066   0.150E-02
   79 T=  4191. E= -.16590085E+04 F= -.17786835E+04 E0= -.17786835E+04  EK= 0.13111E+03 SP= -.12E+02 SK= 0.60E+00
       N       E                     dE             d eps       ncg     rms          rms(c)
DAV:   1    -0.177839675004E+04    0.28681E+00   -0.11726E-01  2832   0.330E+00    0.174E-01
RMM:   2    -0.177840882118E+04   -0.12071E-01   -0.12616E-01  1568   0.357E-01    0.942E-02
RMM:   3    -0.177840916648E+04   -0.34530E-03   -0.59756E-03  1800   0.592E-02    0.660E-02
RMM:   4    -0.177840912167E+04    0.44809E-04   -0.32572E-04  1091   0.162E-02
   80 T=  4245. E= -.16590179E+04 F= -.17784091E+04 E0= -.17784091E+04  EK= 0.13277E+03 SP= -.14E+02 SK= 0.50E+00
       N       E                     dE             d eps       ncg     rms          rms(c)
DAV:   1    -0.177791195470E+04    0.49721E+00   -0.12698E-01  2808   0.333E+00    0.137E-01
RMM:   2    -0.177792530445E+04   -0.13350E-01   -0.13605E-01  1568   0.370E-01    0.104E-01
RMM:   3    -0.177792563344E+04   -0.32899E-03   -0.64583E-03  1807   0.610E-02    0.824E-02
RMM:   4    -0.177792555982E+04    0.73622E-04   -0.29683E-04  1083   0.149E-02
   81 T=  4285. E= -.16590237E+04 F= -.17779256E+04 E0= -.17779256E+04  EK= 0.13405E+03 SP= -.16E+02 SK= 0.39E+00
       N       E                     dE             d eps       ncg     rms          rms(c)
DAV:   1    -0.177727123387E+04    0.65440E+00   -0.11863E-01  2824   0.334E+00    0.110E-01
RMM:   2    -0.177728432751E+04   -0.13094E-01   -0.13154E-01  1568   0.365E-01    0.115E-01
RMM:   3    -0.177728467932E+04   -0.35181E-03   -0.63854E-03  1809   0.601E-02    0.971E-02
RMM:   4    -0.177728460045E+04    0.78868E-04   -0.31436E-04  1097   0.157E-02
   82 T=  4314. E= -.16590266E+04 F= -.17772846E+04 E0= -.17772846E+04  EK= 0.13495E+03 SP= -.17E+02 SK= 0.28E+00
       N       E                     dE             d eps       ncg     rms          rms(c)
DAV:   1    -0.177654132541E+04    0.74335E+00   -0.12409E-01  2824   0.332E+00    0.176E-01
RMM:   2    -0.177655469458E+04   -0.13369E-01   -0.13895E-01  1568   0.375E-01    0.996E-02
RMM:   3    -0.177655504303E+04   -0.34844E-03   -0.64767E-03  1812   0.608E-02    0.707E-02
RMM:   4    -0.177655499418E+04    0.48850E-04   -0.33301E-04  1104   0.164E-02
   83 T=  4332. E= -.16590264E+04 F= -.17765550E+04 E0= -.17765550E+04  EK= 0.13551E+03 SP= -.18E+02 SK= 0.18E+00
       N       E                     dE             d eps       ncg     rms          rms(c)
DAV:   1    -0.177580006709E+04    0.75498E+00   -0.10610E-01  2824   0.334E+00    0.137E-01
RMM:   2    -0.177581367433E+04   -0.13607E-01   -0.13850E-01  1568   0.374E-01    0.103E-01
RMM:   3    -0.177581401055E+04   -0.33623E-03   -0.65481E-03  1807   0.606E-02    0.803E-02
RMM:   4    -0.177581393971E+04    0.70840E-04   -0.28236E-04  1074   0.146E-02
   84 T=  4341. E= -.16590249E+04 F= -.17758139E+04 E0= -.17758139E+04  EK= 0.13579E+03 SP= -.19E+02 SK= 0.11E+00
       N       E                     dE             d eps       ncg     rms          rms(c)
DAV:   1    -0.177512193356E+04    0.69208E+00   -0.93259E-02  2832   0.332E+00    0.101E-01
RMM:   2    -0.177513400187E+04   -0.12068E-01   -0.12103E-01  1568   0.357E-01    0.102E-01
RMM:   3    -0.177513436175E+04   -0.35987E-03   -0.61228E-03  1807   0.577E-02    0.854E-02
RMM:   4    -0.177513429351E+04    0.68241E-04   -0.26295E-04  1053   0.144E-02
   85 T=  4343. E= -.16590239E+04 F= -.17751343E+04 E0= -.17751343E+04  EK= 0.13584E+03 SP= -.20E+02 SK= 0.48E-01
       N       E                     dE             d eps       ncg     rms          rms(c)
DAV:   1    -0.177456058834E+04    0.57377E+00   -0.10142E-01  2824   0.331E+00    0.167E-01
RMM:   2    -0.177457270524E+04   -0.12117E-01   -0.12585E-01  1568   0.363E-01    0.894E-02
RMM:   3    -0.177457305507E+04   -0.34983E-03   -0.60935E-03  1798   0.583E-02    0.623E-02
RMM:   4    -0.177457300945E+04    0.45626E-04   -0.29073E-04  1071   0.154E-02
   86 T=  4339. E= -.16590226E+04 F= -.17745730E+04 E0= -.17745730E+04  EK= 0.13573E+03 SP= -.20E+02 SK= 0.13E-01
       N       E                     dE             d eps       ncg     rms          rms(c)
DAV:   1    -0.177415378232E+04    0.41927E+00   -0.98768E-02  2840   0.332E+00    0.132E-01
RMM:   2    -0.177416599000E+04   -0.12208E-01   -0.12447E-01  1568   0.363E-01    0.987E-02
RMM:   3    -0.177416629368E+04   -0.30368E-03   -0.59721E-03  1792   0.577E-02    0.762E-02
RMM:   4    -0.177416622359E+04    0.70095E-04   -0.26324E-04  1043   0.145E-02
   87 T=  4331. E= -.16590227E+04 F= -.17741662E+04 E0= -.17741662E+04  EK= 0.13548E+03 SP= -.20E+02 SK= 0.71E-04
       N       E                     dE             d eps       ncg     rms          rms(c)
DAV:   1    -0.177391112133E+04    0.25517E+00   -0.10337E-01  2840   0.331E+00    0.105E-01
RMM:   2    -0.177392280785E+04   -0.11687E-01   -0.11751E-01  1568   0.358E-01    0.103E-01
RMM:   3    -0.177392314088E+04   -0.33303E-03   -0.58473E-03  1801   0.569E-02    0.857E-02
RMM:   4    -0.177392307093E+04    0.69951E-04   -0.28265E-04  1058   0.151E-02
   88 T=  4320. E= -.16590239E+04 F= -.17739231E+04 E0= -.17739231E+04  EK= 0.13512E+03 SP= -.20E+02 SK= 0.86E-02
       N       E                     dE             d eps       ncg     rms          rms(c)
DAV:   1    -0.177382065267E+04    0.10249E+00   -0.10810E-01  2872   0.330E+00    0.164E-01
RMM:   2    -0.177383268333E+04   -0.12031E-01   -0.12492E-01  1568   0.368E-01    0.986E-02
RMM:   3    -0.177383301022E+04   -0.32688E-03   -0.59975E-03  1803   0.582E-02    0.701E-02
RMM:   4    -0.177383295597E+04    0.54245E-04   -0.33899E-04  1094   0.168E-02
   89 T=  4304. E= -.16590248E+04 F= -.17738330E+04 E0= -.17738330E+04  EK= 0.13465E+03 SP= -.20E+02 SK= 0.36E-01
       N       E                     dE             d eps       ncg     rms          rms(c)
DAV:   1    -0.177386056040E+04   -0.27550E-01   -0.10377E-01  2840   0.331E+00    0.141E-01
RMM:   2    -0.177387307989E+04   -0.12519E-01   -0.12824E-01  1568   0.374E-01    0.105E-01
RMM:   3    -0.177387339408E+04   -0.31419E-03   -0.61466E-03  1800   0.588E-02    0.795E-02
RMM:   4    -0.177387331907E+04    0.75011E-04   -0.31357E-04  1087   0.158E-02
   90 T=  4286. E= -.16590251E+04 F= -.17738733E+04 E0= -.17738733E+04  EK= 0.13406E+03 SP= -.19E+02 SK= 0.79E-01
       N       E                     dE             d eps       ncg     rms          rms(c)
DAV:   1    -0.177400476385E+04   -0.13137E+00   -0.10280E-01  2816   0.331E+00    0.110E-01
RMM:   2    -0.177401685051E+04   -0.12087E-01   -0.12180E-01  1568   0.366E-01    0.113E-01
RMM:   3    -0.177401717560E+04   -0.32509E-03   -0.60071E-03  1801   0.576E-02    0.931E-02
RMM:   4    -0.177401708832E+04    0.87279E-04   -0.33511E-04  1086   0.167E-02
   91 T=  4263. E= -.16590249E+04 F= -.17740171E+04 E0= -.17740171E+04  EK= 0.13334E+03 SP= -.18E+02 SK= 0.13E+00
       N       E                     dE             d eps       ncg     rms          rms(c)
DAV:   1    -0.177422955725E+04   -0.21238E+00   -0.10294E-01  2864   0.329E+00    0.163E-01
RMM:   2    -0.177424117675E+04   -0.11620E-01   -0.12098E-01  1568   0.371E-01    0.107E-01
RMM:   3    -0.177424147417E+04   -0.29742E-03   -0.56854E-03  1802   0.570E-02    0.768E-02
RMM:   4    -0.177424141496E+04    0.59215E-04   -0.38044E-04  1116   0.181E-02
   92 T=  4235. E= -.16590234E+04 F= -.17742414E+04 E0= -.17742414E+04  EK= 0.13249E+03 SP= -.17E+02 SK= 0.20E+00
       N       E                     dE             d eps       ncg     rms          rms(c)
DAV:   1    -0.177451792630E+04   -0.27645E+00   -0.10141E-01  2808   0.330E+00    0.157E-01
RMM:   2    -0.177452998251E+04   -0.12056E-01   -0.12488E-01  1568   0.377E-01    0.105E-01
RMM:   3    -0.177453024965E+04   -0.26714E-03   -0.57017E-03  1797   0.574E-02    0.770E-02
RMM:   4    -0.177453017592E+04    0.73722E-04   -0.33279E-04  1086   0.166E-02
   93 T=  4205. E= -.16590205E+04 F= -.17745302E+04 E0= -.17745302E+04  EK= 0.13152E+03 SP= -.16E+02 SK= 0.26E+00
       N       E                     dE             d eps       ncg     rms          rms(c)
DAV:   1    -0.177486214905E+04   -0.33190E+00   -0.10108E-01  2800   0.330E+00    0.105E-01
RMM:   2    -0.177487388138E+04   -0.11732E-01   -0.11800E-01  1568   0.365E-01    0.114E-01
RMM:   3    -0.177487419498E+04   -0.31360E-03   -0.57219E-03  1800   0.565E-02    0.952E-02
RMM:   4    -0.177487410475E+04    0.90232E-04   -0.34365E-04  1080   0.171E-02
   94 T=  4170. E= -.16590175E+04 F= -.17748741E+04 E0= -.17748741E+04  EK= 0.13046E+03 SP= -.15E+02 SK= 0.33E+00
       N       E                     dE             d eps       ncg     rms          rms(c)
DAV:   1    -0.177525432679E+04   -0.38013E+00   -0.12141E-01  2816   0.328E+00    0.166E-01
RMM:   2    -0.177526636804E+04   -0.12041E-01   -0.12523E-01  1568   0.374E-01    0.953E-02
RMM:   3    -0.177526670767E+04   -0.33963E-03   -0.58868E-03  1809   0.581E-02    0.673E-02
RMM:   4    -0.177526666574E+04    0.41930E-04   -0.33992E-04  1084   0.170E-02
   95 T=  4134. E= -.16590135E+04 F= -.17752667E+04 E0= -.17752667E+04  EK= 0.12931E+03 SP= -.13E+02 SK= 0.38E+00
       N       E                     dE             d eps       ncg     rms          rms(c)
DAV:   1    -0.177568905273E+04   -0.42235E+00   -0.13594E-01  2808   0.330E+00    0.147E-01
RMM:   2    -0.177570205733E+04   -0.13005E-01   -0.13347E-01  1568   0.386E-01    0.105E-01
RMM:   3    -0.177570230288E+04   -0.24555E-03   -0.58216E-03  1805   0.590E-02    0.790E-02
RMM:   4    -0.177570222775E+04    0.75132E-04   -0.30506E-04  1077   0.156E-02
   96 T=  4096. E= -.16590093E+04 F= -.17757022E+04 E0= -.17757022E+04  EK= 0.12812E+03 SP= -.12E+02 SK= 0.43E+00
       N       E                     dE             d eps       ncg     rms          rms(c)
DAV:   1    -0.177616014074E+04   -0.45784E+00   -0.99157E-02  2832   0.329E+00    0.861E-02
RMM:   2    -0.177617143472E+04   -0.11294E-01   -0.11284E-01  1568   0.358E-01    0.107E-01
RMM:   3    -0.177617174896E+04   -0.31424E-03   -0.54832E-03  1800   0.552E-02    0.935E-02
RMM:   4    -0.177617167183E+04    0.77134E-04   -0.26388E-04  1033   0.147E-02
   97 T=  4057. E= -.16590061E+04 F= -.17761717E+04 E0= -.17761717E+04  EK= 0.12690E+03 SP= -.10E+02 SK= 0.46E+00
       N       E                     dE             d eps       ncg     rms          rms(c)
DAV:   1    -0.177665026603E+04   -0.47852E+00   -0.81731E-02  2840   0.326E+00    0.168E-01
RMM:   2    -0.177666039687E+04   -0.10131E-01   -0.10644E-01  1568   0.349E-01    0.831E-02
RMM:   3    -0.177666073143E+04   -0.33456E-03   -0.52781E-03  1803   0.541E-02    0.544E-02
RMM:   4    -0.177666070354E+04    0.27892E-04   -0.28588E-04  1039   0.156E-02
   98 T=  4018. E= -.16590023E+04 F= -.17766607E+04 E0= -.17766606E+04  EK= 0.12568E+03 SP= -.85E+01 SK= 0.47E+00
       N       E                     dE             d eps       ncg     rms          rms(c)
DAV:   1    -0.177714230191E+04   -0.48157E+00   -0.83965E-02  2856   0.327E+00    0.142E-01
RMM:   2    -0.177715327932E+04   -0.10977E-01   -0.11352E-01  1568   0.359E-01    0.914E-02
RMM:   3    -0.177715352879E+04   -0.24947E-03   -0.51961E-03  1789   0.549E-02    0.669E-02
RMM:   4    -0.177715346418E+04    0.64614E-04   -0.25687E-04  1035   0.143E-02
   99 T=  3979. E= -.16589985E+04 F= -.17771535E+04 E0= -.17771530E+04  EK= 0.12446E+03 SP= -.68E+01 SK= 0.47E+00
       N       E                     dE             d eps       ncg     rms          rms(c)
DAV:   1    -0.177762206222E+04   -0.46853E+00   -0.98355E-02  2784   0.325E+00    0.919E-02
RMM:   2    -0.177763271386E+04   -0.10652E-01   -0.10664E-01  1568   0.349E-01    0.984E-02
RMM:   3    -0.177763299696E+04   -0.28311E-03   -0.51397E-03  1800   0.542E-02    0.813E-02
RMM:   4    -0.177763294918E+04    0.47788E-04   -0.20605E-04  1013   0.125E-02
  100 T=  3940. E= -.16589949E+04 F= -.17776329E+04 E0= -.17776320E+04  EK= 0.12326E+03 SP= -.51E+01 SK= 0.46E+00
       N       E                     dE             d eps       ncg     rms          rms(c)
DAV:   1    -0.177807491268E+04   -0.44192E+00   -0.99170E-02  2832   0.323E+00    0.149E-01
RMM:   2    -0.177808566750E+04   -0.10755E-01   -0.11172E-01  1568   0.352E-01    0.964E-02
RMM:   3    -0.177808598361E+04   -0.31612E-03   -0.55036E-03  1805   0.557E-02    0.667E-02
RMM:   4    -0.177808595166E+04    0.31957E-04   -0.23682E-04  1028   0.134E-02
  101 T=  3903. E= -.16589912E+04 F= -.17780860E+04 E0= -.17780846E+04  EK= 0.12209E+03 SP= -.34E+01 SK= 0.42E+00
       N       E                     dE             d eps       ncg     rms          rms(c)
DAV:   1    -0.177849231661E+04   -0.40633E+00   -0.79072E-02  2880   0.323E+00    0.132E-01
RMM:   2    -0.177850278710E+04   -0.10470E-01   -0.10756E-01  1568   0.346E-01    0.873E-02
RMM:   3    -0.177850308141E+04   -0.29431E-03   -0.52530E-03  1790   0.544E-02    0.627E-02
RMM:   4    -0.177850304362E+04    0.37796E-04   -0.21540E-04  1021   0.126E-02
  102 T=  3867. E= -.16589867E+04 F= -.17785030E+04 E0= -.17785017E+04  EK= 0.12098E+03 SP= -.18E+01 SK= 0.38E+00
       N       E                     dE             d eps       ncg     rms          rms(c)
DAV:   1    -0.177887172747E+04   -0.36865E+00   -0.72184E-02  2872   0.321E+00    0.933E-02
RMM:   2    -0.177888153228E+04   -0.98048E-02   -0.98440E-02  1568   0.332E-01    0.968E-02
RMM:   3    -0.177888180651E+04   -0.27423E-03   -0.49127E-03  1782   0.522E-02    0.803E-02
RMM:   4    -0.177888173670E+04    0.69814E-04   -0.26898E-04  1036   0.147E-02
  103 T=  3834. E= -.16589827E+04 F= -.17788817E+04 E0= -.17788805E+04  EK= 0.11994E+03 SP= -.36E+00 SK= 0.32E+00
       N       E                     dE             d eps       ncg     rms          rms(c)
DAV:   1    -0.177921637386E+04   -0.33457E+00   -0.88649E-02  2832   0.319E+00    0.142E-01
RMM:   2    -0.177922637269E+04   -0.99988E-02   -0.10320E-01  1568   0.338E-01    0.871E-02
RMM:   3    -0.177922665755E+04   -0.28486E-03   -0.49454E-03  1783   0.534E-02    0.610E-02
RMM:   4    -0.177922662033E+04    0.37223E-04   -0.29242E-04  1051   0.155E-02
  104 T=  3804. E= -.16589782E+04 F= -.17792266E+04 E0= -.17792258E+04  EK= 0.11900E+03 SP= 0.99E+00 SK= 0.26E+00
       N       E                     dE             d eps       ncg     rms          rms(c)
DAV:   1    -0.177953985524E+04   -0.31320E+00   -0.87607E-02  2848   0.319E+00    0.130E-01
RMM:   2    -0.177955044955E+04   -0.10594E-01   -0.10891E-01  1568   0.342E-01    0.860E-02
RMM:   3    -0.177955073454E+04   -0.28499E-03   -0.51985E-03  1790   0.544E-02    0.634E-02
RMM:   4    -0.177955067925E+04    0.55291E-04   -0.25913E-04  1030   0.143E-02
  105 T=  3778. E= -.16589741E+04 F= -.17795507E+04 E0= -.17795503E+04  EK= 0.11819E+03 SP= 0.22E+01 SK= 0.20E+00
       N       E                     dE             d eps       ncg     rms          rms(c)
DAV:   1    -0.177986107967E+04   -0.31035E+00   -0.95890E-02  2816   0.317E+00    0.971E-02
RMM:   2    -0.177987132838E+04   -0.10249E-01   -0.10313E-01  1568   0.335E-01    0.946E-02
RMM:   3    -0.177987160220E+04   -0.27382E-03   -0.50072E-03  1785   0.535E-02    0.774E-02
RMM:   4    -0.177987153777E+04    0.64432E-04   -0.28021E-04  1046   0.151E-02
  106 T=  3758. E= -.16589710E+04 F= -.17798715E+04 E0= -.17798715E+04  EK= 0.11755E+03 SP= 0.32E+01 SK= 0.14E+00
       N       E                     dE             d eps       ncg     rms          rms(c)
DAV:   1    -0.178019930976E+04   -0.32771E+00   -0.10447E-01  2784   0.315E+00    0.141E-01
RMM:   2    -0.178020958759E+04   -0.10278E-01   -0.10609E-01  1568   0.337E-01    0.849E-02
RMM:   3    -0.178020987780E+04   -0.29022E-03   -0.50498E-03  1787   0.541E-02    0.609E-02
RMM:   4    -0.178020983990E+04    0.37901E-04   -0.29214E-04  1059   0.154E-02
  107 T=  3743. E= -.16589689E+04 F= -.17802098E+04 E0= -.17802098E+04  EK= 0.11710E+03 SP= 0.41E+01 SK= 0.89E-01
       N       E                     dE             d eps       ncg     rms          rms(c)
DAV:   1    -0.178057436796E+04   -0.36449E+00   -0.90873E-02  2800   0.315E+00    0.126E-01
RMM:   2    -0.178058490001E+04   -0.10532E-01   -0.10788E-01  1568   0.336E-01    0.847E-02
RMM:   3    -0.178058519382E+04   -0.29381E-03   -0.52919E-03  1782   0.546E-02    0.630E-02
RMM:   4    -0.178058514066E+04    0.53158E-04   -0.26272E-04  1036   0.144E-02
  108 T=  3736. E= -.16589679E+04 F= -.17805851E+04 E0= -.17805851E+04  EK= 0.11687E+03 SP= 0.47E+01 SK= 0.47E-01
       N       E                     dE             d eps       ncg     rms          rms(c)
DAV:   1    -0.178100414266E+04   -0.41895E+00   -0.10245E-01  2816   0.314E+00    0.947E-02
RMM:   2    -0.178101451270E+04   -0.10370E-01   -0.10425E-01  1568   0.332E-01    0.908E-02
RMM:   3    -0.178101481430E+04   -0.30160E-03   -0.52224E-03  1780   0.542E-02    0.754E-02
RMM:   4    -0.178101475492E+04    0.59377E-04   -0.26164E-04  1039   0.144E-02
  109 T=  3737. E= -.16589693E+04 F= -.17810148E+04 E0= -.17810148E+04  EK= 0.11689E+03 SP= 0.51E+01 SK= 0.18E-01
       N       E                     dE             d eps       ncg     rms          rms(c)
DAV:   1    -0.178149963358E+04   -0.48482E+00   -0.10907E-01  2800   0.313E+00    0.135E-01
RMM:   2    -0.178151021595E+04   -0.10582E-01   -0.10871E-01  1568   0.336E-01    0.834E-02
RMM:   3    -0.178151053525E+04   -0.31931E-03   -0.53602E-03  1783   0.550E-02    0.610E-02
RMM:   4    -0.178151049846E+04    0.36793E-04   -0.28333E-04  1060   0.151E-02
  110 T=  3746. E= -.16589722E+04 F= -.17815105E+04 E0= -.17815105E+04  EK= 0.11717E+03 SP= 0.54E+01 SK= 0.30E-02
       N       E                     dE             d eps       ncg     rms          rms(c)
DAV:   1    -0.178206715259E+04   -0.55662E+00   -0.11834E-01  2816   0.314E+00    0.128E-01
RMM:   2    -0.178207847787E+04   -0.11325E-01   -0.11582E-01  1568   0.345E-01    0.866E-02
RMM:   3    -0.178207879338E+04   -0.31551E-03   -0.56879E-03  1796   0.568E-02    0.659E-02
RMM:   4    -0.178207874039E+04    0.52993E-04   -0.27104E-04  1055   0.144E-02
  111 T=  3762. E= -.16589768E+04 F= -.17820787E+04 E0= -.17820787E+04  EK= 0.11769E+03 SP= 0.54E+01 SK= 0.45E-03
       N       E                     dE             d eps       ncg     rms          rms(c)
DAV:   1    -0.178271012657E+04   -0.63133E+00   -0.13887E-01  2768   0.315E+00    0.102E-01
RMM:   2    -0.178272172259E+04   -0.11596E-01   -0.11657E-01  1568   0.348E-01    0.937E-02
RMM:   3    -0.178272204519E+04   -0.32259E-03   -0.57112E-03  1793   0.573E-02    0.778E-02
RMM:   4    -0.178272198918E+04    0.56010E-04   -0.26709E-04  1046   0.143E-02
  112 T=  3787. E= -.16589836E+04 F= -.17827220E+04 E0= -.17827220E+04  EK= 0.11847E+03 SP= 0.53E+01 SK= 0.83E-02
       N       E                     dE             d eps       ncg     rms          rms(c)
DAV:   1    -0.178342754179E+04   -0.70550E+00   -0.13871E-01  2800   0.315E+00    0.138E-01
RMM:   2    -0.178343910932E+04   -0.11568E-01   -0.11848E-01  1568   0.350E-01    0.901E-02
RMM:   3    -0.178343943852E+04   -0.32920E-03   -0.56891E-03  1787   0.575E-02    0.681E-02
RMM:   4    -0.178343939589E+04    0.42627E-04   -0.30745E-04  1074   0.157E-02
  113 T=  3819. E= -.16589915E+04 F= -.17834394E+04 E0= -.17834394E+04  EK= 0.11947E+03 SP= 0.50E+01 SK= 0.23E-01
       N       E                     dE             d eps       ncg     rms          rms(c)
DAV:   1    -0.178421660988E+04   -0.77717E+00   -0.11459E-01  2816   0.317E+00    0.133E-01
RMM:   2    -0.178422809274E+04   -0.11483E-01   -0.11752E-01  1568   0.349E-01    0.901E-02
RMM:   3    -0.178422840747E+04   -0.31474E-03   -0.57148E-03  1780   0.572E-02    0.684E-02
RMM:   4    -0.178422835543E+04    0.52044E-04   -0.28386E-04  1060   0.149E-02
  114 T=  3858. E= -.16590008E+04 F= -.17842284E+04 E0= -.17842284E+04  EK= 0.12068E+03 SP= 0.45E+01 SK= 0.41E-01
       N       E                     dE             d eps       ncg     rms          rms(c)
DAV:   1    -0.178507195862E+04   -0.84355E+00   -0.11859E-01  2816   0.318E+00    0.109E-01
RMM:   2    -0.178508335640E+04   -0.11398E-01   -0.11491E-01  1568   0.346E-01    0.961E-02
RMM:   3    -0.178508367437E+04   -0.31797E-03   -0.56289E-03  1789   0.565E-02    0.781E-02
RMM:   4    -0.178508361548E+04    0.58896E-04   -0.28287E-04  1063   0.149E-02
  115 T=  3902. E= -.16590116E+04 F= -.17850836E+04 E0= -.17850836E+04  EK= 0.12206E+03 SP= 0.39E+01 SK= 0.57E-01
       N       E                     dE             d eps       ncg     rms          rms(c)
DAV:   1    -0.178598656012E+04   -0.90289E+00   -0.12532E-01  2808   0.319E+00    0.129E-01
RMM:   2    -0.178599777066E+04   -0.11211E-01   -0.11443E-01  1568   0.348E-01    0.917E-02
RMM:   3    -0.178599808803E+04   -0.31737E-03   -0.54791E-03  1784   0.561E-02    0.702E-02
RMM:   4    -0.178599804220E+04    0.45834E-04   -0.29228E-04  1065   0.154E-02
  116 T=  3951. E= -.16590233E+04 F= -.17859980E+04 E0= -.17859980E+04  EK= 0.12359E+03 SP= 0.33E+01 SK= 0.69E-01
       N       E                     dE             d eps       ncg     rms          rms(c)
DAV:   1    -0.178694918796E+04   -0.95110E+00   -0.13653E-01  2800   0.321E+00    0.142E-01
RMM:   2    -0.178696124085E+04   -0.12053E-01   -0.12343E-01  1568   0.361E-01    0.913E-02
RMM:   3    -0.178696153869E+04   -0.29784E-03   -0.56373E-03  1794   0.577E-02    0.685E-02
RMM:   4    -0.178696148981E+04    0.48882E-04   -0.29387E-04  1074   0.151E-02
  117 T=  4003. E= -.16590353E+04 F= -.17869615E+04 E0= -.17869615E+04  EK= 0.12521E+03 SP= 0.26E+01 SK= 0.73E-01
       N       E                     dE             d eps       ncg     rms          rms(c)
DAV:   1    -0.178795106683E+04   -0.98953E+00   -0.11796E-01  2800   0.324E+00    0.108E-01
RMM:   2    -0.178796299016E+04   -0.11923E-01   -0.12016E-01  1568   0.357E-01    0.994E-02
RMM:   3    -0.178796329934E+04   -0.30918E-03   -0.56626E-03  1788   0.573E-02    0.813E-02
RMM:   4    -0.178796323866E+04    0.60680E-04   -0.28159E-04  1064   0.149E-02
  118 T=  4056. E= -.16590483E+04 F= -.17879632E+04 E0= -.17879632E+04  EK= 0.12687E+03 SP= 0.20E+01 SK= 0.68E-01
       N       E                     dE             d eps       ncg     rms          rms(c)
DAV:   1    -0.178897641885E+04   -0.10131E+01   -0.10842E-01  2808   0.325E+00    0.125E-01
RMM:   2    -0.178898816678E+04   -0.11748E-01   -0.11944E-01  1568   0.353E-01    0.923E-02
RMM:   3    -0.178898852997E+04   -0.36319E-03   -0.59143E-03  1794   0.576E-02    0.711E-02
RMM:   4    -0.178898848433E+04    0.45640E-04   -0.31060E-04  1088   0.157E-02
  119 T=  4109. E= -.16590617E+04 F= -.17889885E+04 E0= -.17889885E+04  EK= 0.12852E+03 SP= 0.13E+01 SK= 0.55E-01
       N       E                     dE             d eps       ncg     rms          rms(c)
DAV:   1    -0.179000464641E+04   -0.10161E+01   -0.98755E-02  2824   0.327E+00    0.143E-01
RMM:   2    -0.179001596377E+04   -0.11317E-01   -0.11649E-01  1568   0.352E-01    0.841E-02
RMM:   3    -0.179001628145E+04   -0.31768E-03   -0.55246E-03  1782   0.561E-02    0.609E-02
RMM:   4    -0.179001623738E+04    0.44070E-04   -0.28245E-04  1067   0.148E-02
  120 T=  4159. E= -.16590749E+04 F= -.17900162E+04 E0= -.17900162E+04  EK= 0.13010E+03 SP= 0.81E+00 SK= 0.37E-01
       N       E                     dE             d eps       ncg     rms          rms(c)
DAV:   1    -0.179100882544E+04   -0.99254E+00   -0.10375E-01  2832   0.329E+00    0.110E-01
RMM:   2    -0.179102011931E+04   -0.11294E-01   -0.11398E-01  1568   0.351E-01    0.935E-02
RMM:   3    -0.179102040959E+04   -0.29028E-03   -0.54032E-03  1777   0.555E-02    0.751E-02
RMM:   4    -0.179102034999E+04    0.59596E-04   -0.26702E-04  1058   0.144E-02
  121 T=  4205. E= -.16590881E+04 F= -.17910203E+04 E0= -.17910203E+04  EK= 0.13153E+03 SP= 0.39E+00 SK= 0.19E-01
       N       E                     dE             d eps       ncg     rms          rms(c)
DAV:   1    -0.179195652914E+04   -0.93612E+00   -0.12763E-01  2832   0.330E+00    0.125E-01
RMM:   2    -0.179196851103E+04   -0.11982E-01   -0.12161E-01  1568   0.360E-01    0.942E-02
RMM:   3    -0.179196881560E+04   -0.30457E-03   -0.56363E-03  1783   0.573E-02    0.739E-02
RMM:   4    -0.179196876554E+04    0.50059E-04   -0.30221E-04  1077   0.154E-02
  122 T=  4243. E= -.16591004E+04 F= -.17919688E+04 E0= -.17919688E+04  EK= 0.13274E+03 SP= 0.13E+00 SK= 0.46E-02
       N       E                     dE             d eps       ncg     rms          rms(c)
DAV:   1    -0.179281061731E+04   -0.84180E+00   -0.12643E-01  2856   0.332E+00    0.142E-01
RMM:   2    -0.179282316964E+04   -0.12552E-01   -0.12880E-01  1568   0.367E-01    0.941E-02
RMM:   3    -0.179282349084E+04   -0.32120E-03   -0.60574E-03  1785   0.591E-02    0.710E-02
RMM:   4    -0.179282343566E+04    0.55179E-04   -0.31870E-04  1093   0.157E-02
  123 T=  4273. E= -.16591114E+04 F= -.17928234E+04 E0= -.17928234E+04  EK= 0.13366E+03 SP= 0.52E-01 SK= 0.16E-03
       N       E                     dE             d eps       ncg     rms          rms(c)
DAV:   1    -0.179353031200E+04   -0.70682E+00   -0.11947E-01  2824   0.333E+00    0.113E-01
RMM:   2    -0.179354243527E+04   -0.12123E-01   -0.12251E-01  1568   0.359E-01    0.965E-02
RMM:   3    -0.179354274752E+04   -0.31225E-03   -0.58368E-03  1779   0.576E-02    0.777E-02
RMM:   4    -0.179354268321E+04    0.64315E-04   -0.28962E-04  1073   0.150E-02
  124 T=  4291. E= -.16591206E+04 F= -.17935427E+04 E0= -.17935427E+04  EK= 0.13422E+03 SP= 0.19E+00 SK= 0.10E-01
       N       E                     dE             d eps       ncg     rms          rms(c)
DAV:   1    -0.179407362948E+04   -0.53088E+00   -0.10484E-01  2800   0.333E+00    0.126E-01
RMM:   2    -0.179408519534E+04   -0.11566E-01   -0.11767E-01  1568   0.350E-01    0.901E-02
RMM:   3    -0.179408552086E+04   -0.32553E-03   -0.56998E-03  1785   0.564E-02    0.689E-02
RMM:   4    -0.179408546896E+04    0.51903E-04   -0.28975E-04  1069   0.152E-02
  125 T=  4296. E= -.16591272E+04 F= -.17940855E+04 E0= -.17940855E+04  EK= 0.13437E+03 SP= 0.55E+00 SK= 0.37E-01
       N       E                     dE             d eps       ncg     rms          rms(c)
DAV:   1    -0.179440312488E+04   -0.31760E+00   -0.10901E-01  2816   0.333E+00    0.141E-01
RMM:   2    -0.179441452856E+04   -0.11404E-01   -0.11734E-01  1568   0.353E-01    0.894E-02
RMM:   3    -0.179441480758E+04   -0.27902E-03   -0.53913E-03  1772   0.561E-02    0.664E-02
RMM:   4    -0.179441475218E+04    0.55401E-04   -0.29214E-04  1072   0.152E-02
  126 T=  4286. E= -.16591302E+04 F= -.17944148E+04 E0= -.17944148E+04  EK= 0.13407E+03 SP= 0.11E+01 SK= 0.79E-01
       N       E                     dE             d eps       ncg     rms          rms(c)
DAV:   1    -0.179449169183E+04   -0.76884E-01   -0.10719E-01  2808   0.332E+00    0.107E-01
RMM:   2    -0.179450272079E+04   -0.11029E-01   -0.11147E-01  1568   0.345E-01    0.963E-02
RMM:   3    -0.179450299365E+04   -0.27286E-03   -0.52650E-03  1764   0.549E-02    0.778E-02
RMM:   4    -0.179450292427E+04    0.69375E-04   -0.28237E-04  1057   0.150E-02
  127 T=  4261. E= -.16591299E+04 F= -.17945029E+04 E0= -.17945029E+04  EK= 0.13329E+03 SP= 0.19E+01 SK= 0.13E+00
       N       E                     dE             d eps       ncg     rms          rms(c)
DAV:   1    -0.179432619423E+04    0.17680E+00   -0.10800E-01  2792   0.329E+00    0.126E-01
RMM:   2    -0.179433733338E+04   -0.11139E-01   -0.11355E-01  1568   0.344E-01    0.951E-02
RMM:   3    -0.179433761963E+04   -0.28626E-03   -0.53227E-03  1780   0.554E-02    0.731E-02
RMM:   4    -0.179433756121E+04    0.58421E-04   -0.32012E-04  1090   0.161E-02
  128 T=  4222. E= -.16591254E+04 F= -.17943376E+04 E0= -.17943376E+04  EK= 0.13206E+03 SP= 0.30E+01 SK= 0.19E+00
       N       E                     dE             d eps       ncg     rms          rms(c)
DAV:   1    -0.179391499019E+04    0.42263E+00   -0.11946E-01  2800   0.327E+00    0.152E-01
RMM:   2    -0.179392679934E+04   -0.11809E-01   -0.12214E-01  1568   0.354E-01    0.941E-02
RMM:   3    -0.179392705042E+04   -0.25109E-03   -0.53928E-03  1772   0.565E-02    0.685E-02
RMM:   4    -0.179392698972E+04    0.60706E-04   -0.32339E-04  1103   0.161E-02
  129 T=  4169. E= -.16591163E+04 F= -.17939270E+04 E0= -.17939270E+04  EK= 0.13042E+03 SP= 0.41E+01 SK= 0.25E+00
       N       E                     dE             d eps       ncg     rms          rms(c)
DAV:   1    -0.179328900316E+04    0.63805E+00   -0.13878E-01  2784   0.324E+00    0.119E-01
RMM:   2    -0.179330142296E+04   -0.12420E-01   -0.12572E-01  1568   0.358E-01    0.108E-01
RMM:   3    -0.179330166326E+04   -0.24029E-03   -0.55416E-03  1784   0.576E-02    0.869E-02
RMM:   4    -0.179330157625E+04    0.87001E-04   -0.34032E-04  1108   0.165E-02
  130 T=  4106. E= -.16591042E+04 F= -.17933016E+04 E0= -.17933016E+04  EK= 0.12845E+03 SP= 0.55E+01 SK= 0.30E+00
       N       E                     dE             d eps       ncg     rms          rms(c)
DAV:   1    -0.179250167902E+04    0.79998E+00   -0.14330E-01  2784   0.319E+00    0.133E-01
RMM:   2    -0.179251393219E+04   -0.12253E-01   -0.12498E-01  1568   0.357E-01    0.110E-01
RMM:   3    -0.179251418630E+04   -0.25410E-03   -0.55068E-03  1789   0.575E-02    0.862E-02
RMM:   4    -0.179251411293E+04    0.73365E-04   -0.39071E-04  1137   0.180E-02
  131 T=  4036. E= -.16590897E+04 F= -.17925141E+04 E0= -.17925141E+04  EK= 0.12625E+03 SP= 0.68E+01 SK= 0.32E+00
       N       E                     dE             d eps       ncg     rms          rms(c)
DAV:   1    -0.179162633707E+04    0.88785E+00   -0.13758E-01  2776   0.315E+00    0.164E-01
RMM:   2    -0.179163847935E+04   -0.12142E-01   -0.12630E-01  1568   0.358E-01    0.981E-02
RMM:   3    -0.179163871570E+04   -0.23635E-03   -0.54797E-03  1780   0.575E-02    0.709E-02
RMM:   4    -0.179163865403E+04    0.61673E-04   -0.34054E-04  1110   0.167E-02
  132 T=  3963. E= -.16590727E+04 F= -.17916387E+04 E0= -.17916387E+04  EK= 0.12397E+03 SP= 0.83E+01 SK= 0.32E+00
       N       E                     dE             d eps       ncg     rms          rms(c)
DAV:   1    -0.179075539886E+04    0.88332E+00   -0.97307E-02  2824   0.311E+00    0.105E-01
RMM:   2    -0.179076653057E+04   -0.11132E-01   -0.11245E-01  1568   0.335E-01    0.108E-01
RMM:   3    -0.179076677651E+04   -0.24593E-03   -0.52740E-03  1763   0.546E-02    0.888E-02
RMM:   4    -0.179076668467E+04    0.91833E-04   -0.30302E-04  1073   0.158E-02
  133 T=  3892. E= -.16590560E+04 F= -.17907667E+04 E0= -.17907667E+04  EK= 0.12175E+03 SP= 0.97E+01 SK= 0.30E+00
       N       E                     dE             d eps       ncg     rms          rms(c)
DAV:   1    -0.178998661272E+04    0.78016E+00   -0.88739E-02  2816   0.305E+00    0.118E-01
RMM:   2    -0.178999638246E+04   -0.97697E-02   -0.99549E-02  1568   0.319E-01    0.984E-02
RMM:   3    -0.178999663103E+04   -0.24858E-03   -0.47119E-03  1744   0.519E-02    0.764E-02
RMM:   4    -0.178999657299E+04    0.58047E-04   -0.31254E-04  1069   0.164E-02
  134 T=  3827. E= -.16590401E+04 F= -.17899966E+04 E0= -.17899966E+04  EK= 0.11973E+03 SP= 0.11E+02 SK= 0.25E+00
       N       E                     dE             d eps       ncg     rms          rms(c)
DAV:   1    -0.178941404150E+04    0.58259E+00   -0.94584E-02  2800   0.302E+00    0.161E-01
RMM:   2    -0.178942406868E+04   -0.10027E-01   -0.10527E-01  1568   0.327E-01    0.865E-02
RMM:   3    -0.178942428864E+04   -0.21996E-03   -0.47140E-03  1766   0.529E-02    0.601E-02
RMM:   4    -0.178942423962E+04    0.49015E-04   -0.27567E-04  1055   0.150E-02
  135 T=  3774. E= -.16590265E+04 F= -.17894242E+04 E0= -.17894242E+04  EK= 0.11805E+03 SP= 0.12E+02 SK= 0.19E+00
       N       E                     dE             d eps       ncg     rms          rms(c)
DAV:   1    -0.178911908796E+04    0.30520E+00   -0.11520E-01  2792   0.300E+00    0.102E-01
RMM:   2    -0.178912955289E+04   -0.10465E-01   -0.10547E-01  1568   0.324E-01    0.103E-01
RMM:   3    -0.178912976989E+04   -0.21701E-03   -0.48523E-03  1765   0.536E-02    0.850E-02
RMM:   4    -0.178912969127E+04    0.78622E-04   -0.28040E-04  1061   0.150E-02
  136 T=  3735. E= -.16590173E+04 F= -.17891297E+04 E0= -.17891297E+04  EK= 0.11682E+03 SP= 0.13E+02 SK= 0.13E+00
       N       E                     dE             d eps       ncg     rms          rms(c)
DAV:   1    -0.178915674073E+04   -0.26971E-01   -0.10372E-01  2808   0.297E+00    0.105E-01
RMM:   2    -0.178916675672E+04   -0.10016E-01   -0.10154E-01  1568   0.310E-01    0.943E-02
RMM:   3    -0.178916705676E+04   -0.30003E-03   -0.50843E-03  1770   0.533E-02    0.754E-02
RMM:   4    -0.178916700675E+04    0.50007E-04   -0.27905E-04  1044   0.153E-02
  137 T=  3712. E= -.16590133E+04 F= -.17891670E+04 E0= -.17891670E+04  EK= 0.11612E+03 SP= 0.14E+02 SK= 0.76E-01
       N       E                     dE             d eps       ncg     rms          rms(c)
DAV:   1    -0.178954725235E+04   -0.38020E+00   -0.93340E-02  2816   0.296E+00    0.156E-01
RMM:   2    -0.178955659984E+04   -0.93475E-02   -0.98217E-02  1568   0.308E-01    0.772E-02
RMM:   3    -0.178955685487E+04   -0.25503E-03   -0.46819E-03  1759   0.522E-02    0.526E-02
[...]
RMM:   4    -0.179580328916E+04    0.36757E-04   -0.24405E-04  1056   0.125E-02
  965 T=  3891. E= -.16606159E+04 F= -.17958033E+04 E0= -.17958008E+04  EK= 0.12172E+03 SP= 0.13E+02 SK= 0.83E+00
       N       E                     dE             d eps       ncg     rms          rms(c)
DAV:   1    -0.179604127688E+04   -0.23795E+00   -0.10619E-01  2808   0.309E+00    0.126E-01
RMM:   2    -0.179605167735E+04   -0.10400E-01   -0.10592E-01  1568   0.330E-01    0.999E-02
RMM:   3    -0.179605200554E+04   -0.32819E-03   -0.55223E-03  1795   0.557E-02    0.809E-02
RMM:   4    -0.179605199052E+04    0.15023E-04   -0.27069E-04  1037   0.132E-02
  966 T=  3831. E= -.16606078E+04 F= -.17960520E+04 E0= -.17960494E+04  EK= 0.11983E+03 SP= 0.15E+02 SK= 0.75E+00
       N       E                     dE             d eps       ncg     rms          rms(c)
DAV:   1    -0.179631870162E+04   -0.26670E+00   -0.11321E-01  2848   0.310E+00    0.169E-01
RMM:   2    -0.179632968663E+04   -0.10985E-01   -0.11460E-01  1568   0.341E-01    0.107E-01
RMM:   3    -0.179632986534E+04   -0.17871E-03   -0.53036E-03  1785   0.564E-02    0.733E-02
RMM:   4    -0.179632980994E+04    0.55404E-04   -0.31523E-04  1078   0.152E-02
  967 T=  3776. E= -.16605999E+04 F= -.17963298E+04 E0= -.17963285E+04  EK= 0.11813E+03 SP= 0.17E+02 SK= 0.65E+00
       N       E                     dE             d eps       ncg     rms          rms(c)
DAV:   1    -0.179661398859E+04   -0.28412E+00   -0.12047E-01  2824   0.308E+00    0.121E-01
RMM:   2    -0.179662447076E+04   -0.10482E-01   -0.10587E-01  1568   0.330E-01    0.914E-02
RMM:   3    -0.179662471129E+04   -0.24053E-03   -0.50867E-03  1785   0.550E-02    0.715E-02
RMM:   4    -0.179662465785E+04    0.53438E-04   -0.26595E-04  1060   0.141E-02
  968 T=  3728. E= -.16605928E+04 F= -.17966247E+04 E0= -.17966240E+04  EK= 0.11663E+03 SP= 0.19E+02 SK= 0.53E+00
       N       E                     dE             d eps       ncg     rms          rms(c)
DAV:   1    -0.179691383217E+04   -0.28912E+00   -0.11348E-01  2832   0.306E+00    0.144E-01
RMM:   2    -0.179692424638E+04   -0.10414E-01   -0.10901E-01  1568   0.329E-01    0.110E-01
RMM:   3    -0.179692445968E+04   -0.21329E-03   -0.52550E-03  1794   0.558E-02    0.831E-02
RMM:   4    -0.179692436685E+04    0.92826E-04   -0.50119E-04  1207   0.198E-02
  969 T=  3687. E= -.16605870E+04 F= -.17969244E+04 E0= -.17969243E+04  EK= 0.11535E+03 SP= 0.21E+02 SK= 0.41E+00
       N       E                     dE             d eps       ncg     rms          rms(c)
DAV:   1    -0.179720625719E+04   -0.28180E+00   -0.99925E-02  2848   0.305E+00    0.139E-01
RMM:   2    -0.179721644886E+04   -0.10192E-01   -0.10579E-01  1568   0.319E-01    0.846E-02
RMM:   3    -0.179721675366E+04   -0.30480E-03   -0.54051E-03  1786   0.554E-02    0.619E-02
RMM:   4    -0.179721670034E+04    0.53323E-04   -0.32824E-04  1086   0.160E-02
  970 T=  3654. E= -.16605826E+04 F= -.17972167E+04 E0= -.17972167E+04  EK= 0.11429E+03 SP= 0.22E+02 SK= 0.29E+00
       N       E                     dE             d eps       ncg     rms          rms(c)
DAV:   1    -0.179747861863E+04   -0.26186E+00   -0.10982E-01  2808   0.305E+00    0.119E-01
RMM:   2    -0.179748858049E+04   -0.99619E-02   -0.10159E-01  1569   0.316E-01    0.905E-02
RMM:   3    -0.179748882128E+04   -0.24079E-03   -0.48800E-03  1784   0.537E-02    0.692E-02
RMM:   4    -0.179748876322E+04    0.58064E-04   -0.30429E-04  1065   0.156E-02
  971 T=  3628. E= -.16605795E+04 F= -.17974888E+04 E0= -.17974888E+04  EK= 0.11347E+03 SP= 0.23E+02 SK= 0.18E+00
       N       E                     dE             d eps       ncg     rms          rms(c)
DAV:   1    -0.179771830522E+04   -0.22948E+00   -0.95038E-02  2872   0.304E+00    0.102E-01
RMM:   2    -0.179772749297E+04   -0.91877E-02   -0.93583E-02  1569   0.304E-01    0.912E-02
RMM:   3    -0.179772774792E+04   -0.25495E-03   -0.47799E-03  1780   0.522E-02    0.734E-02
RMM:   4    -0.179772768101E+04    0.66912E-04   -0.30311E-04  1064   0.157E-02
  972 T=  3609. E= -.16605780E+04 F= -.17977277E+04 E0= -.17977277E+04  EK= 0.11289E+03 SP= 0.24E+02 SK= 0.94E-01
       N       E                     dE             d eps       ncg     rms          rms(c)
DAV:   1    -0.179791078035E+04   -0.18303E+00   -0.95963E-02  2848   0.303E+00    0.144E-01
RMM:   2    -0.179792005588E+04   -0.92755E-02   -0.96534E-02  1568   0.307E-01    0.725E-02
RMM:   3    -0.179792035292E+04   -0.29704E-03   -0.48724E-03  1796   0.532E-02    0.500E-02
RMM:   4    -0.179792032259E+04    0.30325E-04   -0.25221E-04  1032   0.142E-02
  973 T=  3597. E= -.16605776E+04 F= -.17979203E+04 E0= -.17979203E+04  EK= 0.11253E+03 SP= 0.25E+02 SK= 0.34E-01
       N       E                     dE             d eps       ncg     rms          rms(c)
DAV:   1    -0.179804418817E+04   -0.12384E+00   -0.10489E-01  2792   0.304E+00    0.104E-01
RMM:   2    -0.179805435170E+04   -0.10164E-01   -0.10312E-01  1568   0.314E-01    0.912E-02
RMM:   3    -0.179805460747E+04   -0.25577E-03   -0.49392E-03  1796   0.539E-02    0.727E-02
RMM:   4    -0.179805454768E+04    0.59786E-04   -0.25286E-04  1044   0.140E-02
  974 T=  3593. E= -.16605784E+04 F= -.17980545E+04 E0= -.17980545E+04  EK= 0.11239E+03 SP= 0.25E+02 SK= 0.34E-02
       N       E                     dE             d eps       ncg     rms          rms(c)
DAV:   1    -0.179811015650E+04   -0.55549E-01   -0.13125E-01  2792   0.304E+00    0.909E-02
RMM:   2    -0.179812041687E+04   -0.10260E-01   -0.10321E-01  1568   0.314E-01    0.952E-02
RMM:   3    -0.179812068584E+04   -0.26898E-03   -0.49719E-03  1799   0.541E-02    0.806E-02
RMM:   4    -0.179812063275E+04    0.53089E-04   -0.26705E-04  1049   0.145E-02
  975 T=  3595. E= -.16605805E+04 F= -.17981206E+04 E0= -.17981206E+04  EK= 0.11246E+03 SP= 0.25E+02 SK= 0.46E-02
       N       E                     dE             d eps       ncg     rms          rms(c)
DAV:   1    -0.179810290397E+04    0.17782E-01   -0.12138E-01  2800   0.304E+00    0.153E-01
RMM:   2    -0.179811300909E+04   -0.10105E-01   -0.10561E-01  1568   0.318E-01    0.844E-02
RMM:   3    -0.179811329070E+04   -0.28162E-03   -0.50562E-03  1798   0.547E-02    0.600E-02
RMM:   4    -0.179811325510E+04    0.35601E-04   -0.30701E-04  1078   0.157E-02
  976 T=  3604. E= -.16605833E+04 F= -.17981133E+04 E0= -.17981133E+04  EK= 0.11275E+03 SP= 0.25E+02 SK= 0.37E-01
       N       E                     dE             d eps       ncg     rms          rms(c)
DAV:   1    -0.179802058636E+04    0.92704E-01   -0.10880E-01  2808   0.305E+00    0.116E-01
RMM:   2    -0.179803080790E+04   -0.10222E-01   -0.10412E-01  1568   0.315E-01    0.819E-02
RMM:   3    -0.179803110201E+04   -0.29411E-03   -0.51496E-03  1787   0.546E-02    0.634E-02
RMM:   4    -0.179803105521E+04    0.46792E-04   -0.24488E-04  1042   0.137E-02
  977 T=  3620. E= -.16605873E+04 F= -.17980311E+04 E0= -.17980311E+04  EK= 0.11323E+03 SP= 0.24E+02 SK= 0.98E-01
       N       E                     dE             d eps       ncg     rms          rms(c)
DAV:   1    -0.179786616951E+04    0.16493E+00   -0.11457E-01  2808   0.306E+00    0.956E-02
RMM:   2    -0.179787625990E+04   -0.10090E-01   -0.10155E-01  1568   0.311E-01    0.842E-02
RMM:   3    -0.179787655286E+04   -0.29296E-03   -0.50234E-03  1793   0.537E-02    0.696E-02
RMM:   4    -0.179787650602E+04    0.46836E-04   -0.23292E-04  1026   0.136E-02
  978 T=  3641. E= -.16605925E+04 F= -.17978765E+04 E0= -.17978765E+04  EK= 0.11391E+03 SP= 0.23E+02 SK= 0.18E+00
       N       E                     dE             d eps       ncg     rms          rms(c)
DAV:   1    -0.179764646080E+04    0.23009E+00   -0.11396E-01  2792   0.307E+00    0.126E-01
RMM:   2    -0.179765655839E+04   -0.10098E-01   -0.10360E-01  1568   0.314E-01    0.816E-02
RMM:   3    -0.179765687142E+04   -0.31304E-03   -0.51940E-03  1792   0.544E-02    0.610E-02
RMM:   4    -0.179765683565E+04    0.35772E-04   -0.26304E-04  1051   0.144E-02
  979 T=  3669. E= -.16605988E+04 F= -.17976568E+04 E0= -.17976568E+04  EK= 0.11478E+03 SP= 0.22E+02 SK= 0.29E+00
       N       E                     dE             d eps       ncg     rms          rms(c)
DAV:   1    -0.179736942253E+04    0.28745E+00   -0.11385E-01  2792   0.308E+00    0.120E-01
RMM:   2    -0.179737998885E+04   -0.10566E-01   -0.10787E-01  1568   0.320E-01    0.826E-02
RMM:   3    -0.179738030441E+04   -0.31556E-03   -0.53723E-03  1792   0.555E-02    0.638E-02
RMM:   4    -0.179738025830E+04    0.46111E-04   -0.26005E-04  1055   0.142E-02
  980 T=  3703. E= -.16606061E+04 F= -.17973803E+04 E0= -.17973803E+04  EK= 0.11584E+03 SP= 0.21E+02 SK= 0.40E+00
       N       E                     dE             d eps       ncg     rms          rms(c)
DAV:   1    -0.179704342958E+04    0.33687E+00   -0.11981E-01  2792   0.310E+00    0.101E-01
RMM:   2    -0.179705418908E+04   -0.10759E-01   -0.10848E-01  1568   0.321E-01    0.837E-02
RMM:   3    -0.179705451271E+04   -0.32363E-03   -0.54101E-03  1791   0.556E-02    0.687E-02
RMM:   4    -0.179705446947E+04    0.43238E-04   -0.23874E-04  1037   0.135E-02
  981 T=  3743. E= -.16606146E+04 F= -.17970545E+04 E0= -.17970545E+04  EK= 0.11708E+03 SP= 0.19E+02 SK= 0.52E+00
       N       E                     dE             d eps       ncg     rms          rms(c)
DAV:   1    -0.179667317838E+04    0.38133E+00   -0.13409E-01  2792   0.311E+00    0.126E-01
RMM:   2    -0.179668454654E+04   -0.11368E-01   -0.11584E-01  1568   0.331E-01    0.834E-02
RMM:   3    -0.179668487372E+04   -0.32717E-03   -0.56522E-03  1803   0.571E-02    0.648E-02
RMM:   4    -0.179668483345E+04    0.40267E-04   -0.26418E-04  1052   0.143E-02
  982 T=  3787. E= -.16606242E+04 F= -.17966848E+04 E0= -.17966848E+04  EK= 0.11847E+03 SP= 0.17E+02 SK= 0.63E+00
       N       E                     dE             d eps       ncg     rms          rms(c)
DAV:   1    -0.179626256075E+04    0.42231E+00   -0.12066E-01  2840   0.314E+00    0.119E-01
RMM:   2    -0.179627390914E+04   -0.11348E-01   -0.11540E-01  1568   0.331E-01    0.848E-02
RMM:   3    -0.179627426469E+04   -0.35555E-03   -0.59115E-03  1805   0.578E-02    0.668E-02
RMM:   4    -0.179627421879E+04    0.45897E-04   -0.25537E-04  1058   0.138E-02
  983 T=  3836. E= -.16606352E+04 F= -.17962742E+04 E0= -.17962742E+04  EK= 0.12000E+03 SP= 0.15E+02 SK= 0.72E+00
       N       E                     dE             d eps       ncg     rms          rms(c)
DAV:   1    -0.179580939752E+04    0.46487E+00   -0.11328E-01  2808   0.316E+00    0.109E-01
RMM:   2    -0.179582040012E+04   -0.11003E-01   -0.11118E-01  1568   0.327E-01    0.837E-02
RMM:   3    -0.179582076092E+04   -0.36080E-03   -0.58229E-03  1800   0.572E-02    0.681E-02
RMM:   4    -0.179582071550E+04    0.45413E-04   -0.25799E-04  1056   0.138E-02
  984 T=  3888. E= -.16606474E+04 F= -.17958207E+04 E0= -.17958207E+04  EK= 0.12164E+03 SP= 0.13E+02 SK= 0.80E+00
       N       E                     dE             d eps       ncg     rms          rms(c)
DAV:   1    -0.179530567699E+04    0.51508E+00   -0.12956E-01  2792   0.318E+00    0.127E-01
RMM:   2    -0.179531720431E+04   -0.11527E-01   -0.11729E-01  1568   0.338E-01    0.869E-02
RMM:   3    -0.179531752872E+04   -0.32441E-03   -0.57775E-03  1806   0.578E-02    0.680E-02
RMM:   4    -0.179531748451E+04    0.44209E-04   -0.26712E-04  1064   0.141E-02
  985 T=  3943. E= -.16606598E+04 F= -.17953175E+04 E0= -.17953175E+04  EK= 0.12333E+03 SP= 0.10E+02 SK= 0.84E+00
       N       E                     dE             d eps       ncg     rms          rms(c)
DAV:   1    -0.179474131056E+04    0.57622E+00   -0.13487E-01  2800   0.321E+00    0.126E-01
RMM:   2    -0.179475360724E+04   -0.12297E-01   -0.12496E-01  1568   0.347E-01    0.899E-02
RMM:   3    -0.179475395011E+04   -0.34287E-03   -0.61155E-03  1805   0.594E-02    0.711E-02
RMM:   4    -0.179475390321E+04    0.46901E-04   -0.28018E-04  1075   0.144E-02
  986 T=  3997. E= -.16606722E+04 F= -.17947539E+04 E0= -.17947539E+04  EK= 0.12504E+03 SP= 0.82E+01 SK= 0.86E+00
       N       E                     dE             d eps       ncg     rms          rms(c)
DAV:   1    -0.179410317920E+04    0.65077E+00   -0.14419E-01  2800   0.323E+00    0.120E-01
RMM:   2    -0.179411588929E+04   -0.12710E-01   -0.12861E-01  1568   0.356E-01    0.971E-02
RMM:   3    -0.179411624050E+04   -0.35121E-03   -0.62842E-03  1818   0.607E-02    0.788E-02
RMM:   4    -0.179411618585E+04    0.54650E-04   -0.28456E-04  1074   0.146E-02
  987 T=  4051. E= -.16606844E+04 F= -.17941162E+04 E0= -.17941162E+04  EK= 0.12671E+03 SP= 0.59E+01 SK= 0.85E+00
       N       E                     dE             d eps       ncg     rms          rms(c)
DAV:   1    -0.179337816169E+04    0.73808E+00   -0.14044E-01  2776   0.325E+00    0.125E-01
RMM:   2    -0.179339104392E+04   -0.12882E-01   -0.13056E-01  1568   0.360E-01    0.979E-02
RMM:   3    -0.179339139121E+04   -0.34728E-03   -0.62451E-03  1815   0.607E-02    0.788E-02
RMM:   4    -0.179339133556E+04    0.55646E-04   -0.29830E-04  1091   0.150E-02
  988 T=  4101. E= -.16606957E+04 F= -.17933913E+04 E0= -.17933913E+04  EK= 0.12829E+03 SP= 0.36E+01 SK= 0.80E+00
       N       E                     dE             d eps       ncg     rms          rms(c)
DAV:   1    -0.179255718992E+04    0.83420E+00   -0.13879E-01  2792   0.327E+00    0.134E-01
RMM:   2    -0.179257062810E+04   -0.13438E-01   -0.13663E-01  1568   0.365E-01    0.991E-02
RMM:   3    -0.179257099199E+04   -0.36388E-03   -0.65917E-03  1814   0.618E-02    0.776E-02
RMM:   4    -0.179257093432E+04    0.57668E-04   -0.31574E-04  1101   0.154E-02
  989 T=  4147. E= -.16607055E+04 F= -.17925709E+04 E0= -.17925709E+04  EK= 0.12972E+03 SP= 0.14E+01 SK= 0.74E+00
       N       E                     dE             d eps       ncg     rms          rms(c)
DAV:   1    -0.179164112012E+04    0.92987E+00   -0.13925E-01  2792   0.328E+00    0.134E-01
RMM:   2    -0.179165458142E+04   -0.13461E-01   -0.13665E-01  1568   0.366E-01    0.967E-02
RMM:   3    -0.179165495198E+04   -0.37055E-03   -0.66367E-03  1813   0.619E-02    0.754E-02
RMM:   4    -0.179165489636E+04    0.55617E-04   -0.31635E-04  1097   0.154E-02
  990 T=  4186. E= -.16607134E+04 F= -.17916549E+04 E0= -.17916549E+04  EK= 0.13095E+03 SP= -.66E+00 SK= 0.65E+00
       N       E                     dE             d eps       ncg     rms          rms(c)
DAV:   1    -0.179064005652E+04    0.10149E+01   -0.13383E-01  2824   0.329E+00    0.132E-01
RMM:   2    -0.179065305970E+04   -0.13003E-01   -0.13208E-01  1568   0.366E-01    0.998E-02
RMM:   3    -0.179065340054E+04   -0.34084E-03   -0.63581E-03  1805   0.606E-02    0.782E-02
RMM:   4    -0.179065334142E+04    0.59123E-04   -0.30911E-04  1091   0.153E-02
  991 T=  4219. E= -.16607194E+04 F= -.17906533E+04 E0= -.17906533E+04  EK= 0.13198E+03 SP= -.26E+01 SK= 0.55E+00
       N       E                     dE             d eps       ncg     rms          rms(c)
DAV:   1    -0.178957527499E+04    0.10781E+01   -0.14274E-01  2824   0.330E+00    0.131E-01
RMM:   2    -0.178958831709E+04   -0.13042E-01   -0.13239E-01  1568   0.369E-01    0.103E-01
RMM:   3    -0.178958863786E+04   -0.32077E-03   -0.62408E-03  1808   0.604E-02    0.811E-02
RMM:   4    -0.178958857542E+04    0.62442E-04   -0.32136E-04  1096   0.158E-02
  992 T=  4245. E= -.16607230E+04 F= -.17895886E+04 E0= -.17895886E+04  EK= 0.13277E+03 SP= -.44E+01 SK= 0.45E+00
       N       E                     dE             d eps       ncg     rms          rms(c)
DAV:   1    -0.178848168852E+04    0.11069E+01   -0.11502E-01  2816   0.330E+00    0.131E-01
RMM:   2    -0.178849464528E+04   -0.12957E-01   -0.13161E-01  1568   0.366E-01    0.989E-02
RMM:   3    -0.178849499919E+04   -0.35391E-03   -0.63778E-03  1809   0.604E-02    0.768E-02
RMM:   4    -0.178849494288E+04    0.56314E-04   -0.30870E-04  1093   0.154E-02
  993 T=  4263. E= -.16607250E+04 F= -.17884949E+04 E0= -.17884949E+04  EK= 0.13335E+03 SP= -.59E+01 SK= 0.35E+00
       N       E                     dE             d eps       ncg     rms          rms(c)
DAV:   1    -0.178739967946E+04    0.10953E+01   -0.11124E-01  2840   0.329E+00    0.135E-01
RMM:   2    -0.178741267384E+04   -0.12994E-01   -0.13205E-01  1568   0.367E-01    0.971E-02
RMM:   3    -0.178741303021E+04   -0.35638E-03   -0.63904E-03  1812   0.604E-02    0.744E-02
RMM:   4    -0.178741297151E+04    0.58701E-04   -0.31293E-04  1091   0.156E-02
  994 T=  4275. E= -.16607255E+04 F= -.17874130E+04 E0= -.17874130E+04  EK= 0.13373E+03 SP= -.73E+01 SK= 0.26E+00
       N       E                     dE             d eps       ncg     rms          rms(c)
DAV:   1    -0.178637576624E+04    0.10373E+01   -0.10840E-01  2848   0.329E+00    0.123E-01
RMM:   2    -0.178638782258E+04   -0.12056E-01   -0.12222E-01  1568   0.359E-01    0.914E-02
RMM:   3    -0.178638816017E+04   -0.33759E-03   -0.59970E-03  1805   0.584E-02    0.708E-02
RMM:   4    -0.178638810622E+04    0.53952E-04   -0.27281E-04  1063   0.145E-02
  995 T=  4282. E= -.16607249E+04 F= -.17863881E+04 E0= -.17863881E+04  EK= 0.13395E+03 SP= -.85E+01 SK= 0.18E+00
       N       E                     dE             d eps       ncg     rms          rms(c)
DAV:   1    -0.178545362614E+04    0.93453E+00   -0.11893E-01  2880   0.328E+00    0.128E-01
RMM:   2    -0.178546599820E+04   -0.12372E-01   -0.12552E-01  1568   0.363E-01    0.894E-02
RMM:   3    -0.178546634695E+04   -0.34876E-03   -0.61948E-03  1806   0.592E-02    0.688E-02
RMM:   4    -0.178546629762E+04    0.49334E-04   -0.27585E-04  1071   0.144E-02
  996 T=  4285. E= -.16607243E+04 F= -.17854663E+04 E0= -.17854663E+04  EK= 0.13404E+03 SP= -.94E+01 SK= 0.11E+00
       N       E                     dE             d eps       ncg     rms          rms(c)
DAV:   1    -0.178467141863E+04    0.79493E+00   -0.12606E-01  2832   0.327E+00    0.120E-01
RMM:   2    -0.178468431751E+04   -0.12899E-01   -0.13040E-01  1568   0.366E-01    0.947E-02
RMM:   3    -0.178468468199E+04   -0.36447E-03   -0.65215E-03  1809   0.602E-02    0.748E-02
RMM:   4    -0.178468462839E+04    0.53596E-04   -0.27554E-04  1076   0.144E-02
  997 T=  4285. E= -.16607240E+04 F= -.17846846E+04 E0= -.17846846E+04  EK= 0.13403E+03 SP= -.10E+02 SK= 0.61E-01
       N       E                     dE             d eps       ncg     rms          rms(c)
DAV:   1    -0.178405455756E+04    0.63012E+00   -0.12654E-01  2784   0.326E+00    0.120E-01
RMM:   2    -0.178406719040E+04   -0.12633E-01   -0.12784E-01  1568   0.363E-01    0.905E-02
RMM:   3    -0.178406756701E+04   -0.37661E-03   -0.63841E-03  1810   0.596E-02    0.710E-02
RMM:   4    -0.178406751845E+04    0.48561E-04   -0.26934E-04  1058   0.145E-02
  998 T=  4282. E= -.16607245E+04 F= -.17840675E+04 E0= -.17840675E+04  EK= 0.13395E+03 SP= -.11E+02 SK= 0.25E-01
       N       E                     dE             d eps       ncg     rms          rms(c)
DAV:   1    -0.178361019812E+04    0.45737E+00   -0.12944E-01  2776   0.325E+00    0.130E-01
RMM:   2    -0.178362258404E+04   -0.12386E-01   -0.12601E-01  1568   0.361E-01    0.871E-02
RMM:   3    -0.178362293316E+04   -0.34912E-03   -0.61787E-03  1804   0.589E-02    0.662E-02
RMM:   4    -0.178362288565E+04    0.47505E-04   -0.26036E-04  1051   0.142E-02
  999 T=  4278. E= -.16607254E+04 F= -.17836229E+04 E0= -.17836229E+04  EK= 0.13381E+03 SP= -.11E+02 SK= 0.51E-02
       N       E                     dE             d eps       ncg     rms          rms(c)
DAV:   1    -0.178333104857E+04    0.29188E+00   -0.14379E-01  2792   0.325E+00    0.122E-01
RMM:   2    -0.178334363142E+04   -0.12583E-01   -0.12716E-01  1568   0.361E-01    0.881E-02
RMM:   3    -0.178334396017E+04   -0.32875E-03   -0.61884E-03  1798   0.589E-02    0.691E-02
RMM:   4    -0.178334391274E+04    0.47428E-04   -0.25428E-04  1052   0.138E-02
 1000 T=  4271. E= -.16607274E+04 F= -.17833439E+04 E0= -.17833439E+04  EK= 0.13360E+03 SP= -.11E+02 SK= 0.19E-03
