 243 243   0   0
  0.1311381E+02  0.1499190E-08  0.1499190E-08  0.1637160E-08  0.5000000E-15
  1.000000000000000E-004
  CAR 
 (Si O2)81  (P1) ~ Ciellie_MCM41 (MD     
     12.83060434    -20.33182057  301      1.12012305      1.00000000
    -20.332  0.0000E+00  0.0000E+00
    -20.221  0.0000E+00  0.0000E+00
    -20.111  0.0000E+00  0.0000E+00
    -20.000  0.0000E+00  0.0000E+00
    -19.890  0.0000E+00  0.0000E+00
    -19.779  0.0000E+00  0.0000E+00
    -19.669  0.0000E+00  0.0000E+00
    -19.558  0.0000E+00  0.0000E+00
    -19.447  0.0000E+00  0.0000E+00
    -19.337  0.0000E+00  0.0000E+00
    -19.226  0.0000E+00  0.0000E+00
    -19.116  0.1607E-16  0.1776E-17
    -19.005  0.6144E-07  0.6792E-08
    -18.895  0.2656E-01  0.2936E-02
    -18.784  0.6402E+01  0.7106E+00
    -18.674  0.3172E+02  0.4217E+01
    -18.563  0.5364E+02  0.1015E+02
    -18.453  0.7970E+02  0.1896E+02
    -18.342  0.1563E+03  0.3624E+02
    -18.232  0.1600E+03  0.5392E+02
    -18.121  0.3102E+02  0.5735E+02
    -18.010  0.4213E+02  0.6200E+02
    -17.900  0.1153E+03  0.7475E+02
    -17.789  0.1787E+03  0.9450E+02
    -17.679  0.6507E+02  0.1017E+03
    -17.568  0.3239E+02  0.1053E+03
    -17.458  0.2513E+02  0.1081E+03
    -17.347  0.6587E+02  0.1153E+03
    -17.237  0.1994E+03  0.1374E+03
    -17.126  0.9196E+02  0.1475E+03
    -17.016  0.5079E+02  0.1532E+03
    -16.905  0.3555E+02  0.1571E+03
    -16.794  0.2499E+02  0.1599E+03
    -16.684  0.2140E+03  0.1835E+03
    -16.573  0.1224E+04  0.3188E+03
    -16.463  0.4739E+02  0.3240E+03
    -16.352  0.1213E-02  0.3240E+03
    -16.242  0.6379E-11  0.3240E+03
    -16.131  0.0000E+00  0.3240E+03
    -16.021  0.0000E+00  0.3240E+03
    -15.910  0.0000E+00  0.3240E+03
    -15.800  0.0000E+00  0.3240E+03
    -15.689  0.0000E+00  0.3240E+03
    -15.579  0.0000E+00  0.3240E+03
    -15.468  0.0000E+00  0.3240E+03
    -15.357  0.0000E+00  0.3240E+03
    -15.247  0.0000E+00  0.3240E+03
    -15.136  0.0000E+00  0.3240E+03
    -15.026  0.0000E+00  0.3240E+03
    -14.915  0.0000E+00  0.3240E+03
    -14.805  0.0000E+00  0.3240E+03
    -14.694  0.0000E+00  0.3240E+03
    -14.584  0.0000E+00  0.3240E+03
    -14.473  0.0000E+00  0.3240E+03
    -14.363  0.0000E+00  0.3240E+03
    -14.252  0.0000E+00  0.3240E+03
    -14.142  0.0000E+00  0.3240E+03
    -14.031  0.0000E+00  0.3240E+03
    -13.920  0.0000E+00  0.3240E+03
    -13.810  0.0000E+00  0.3240E+03
    -13.699  0.0000E+00  0.3240E+03
    -13.589  0.0000E+00  0.3240E+03
    -13.478  0.0000E+00  0.3240E+03
    -13.368  0.0000E+00  0.3240E+03
    -13.257  0.0000E+00  0.3240E+03
    -13.147  0.0000E+00  0.3240E+03
    -13.036  0.0000E+00  0.3240E+03
    -12.926  0.0000E+00  0.3240E+03
    -12.815  0.0000E+00  0.3240E+03
    -12.704  0.0000E+00  0.3240E+03
    -12.594  0.0000E+00  0.3240E+03
    -12.483  0.0000E+00  0.3240E+03
    -12.373  0.0000E+00  0.3240E+03
    -12.262  0.0000E+00  0.3240E+03
    -12.152  0.0000E+00  0.3240E+03
    -12.041  0.0000E+00  0.3240E+03
    -11.931  0.0000E+00  0.3240E+03
    -11.820  0.0000E+00  0.3240E+03
    -11.710  0.0000E+00  0.3240E+03
    -11.599  0.0000E+00  0.3240E+03
    -11.489  0.0000E+00  0.3240E+03
    -11.378  0.0000E+00  0.3240E+03
    -11.267  0.0000E+00  0.3240E+03
    -11.157  0.0000E+00  0.3240E+03
    -11.046  0.0000E+00  0.3240E+03
    -10.936  0.0000E+00  0.3240E+03
    -10.825  0.0000E+00  0.3240E+03
    -10.715  0.0000E+00  0.3240E+03
    -10.604  0.0000E+00  0.3240E+03
    -10.494  0.0000E+00  0.3240E+03
    -10.383  0.0000E+00  0.3240E+03
    -10.273  0.0000E+00  0.3240E+03
    -10.162  0.0000E+00  0.3240E+03
    -10.051  0.0000E+00  0.3240E+03
     -9.941  0.0000E+00  0.3240E+03
     -9.830  0.0000E+00  0.3240E+03
     -9.720  0.0000E+00  0.3240E+03
     -9.609  0.0000E+00  0.3240E+03
     -9.499  0.0000E+00  0.3240E+03
     -9.388  0.0000E+00  0.3240E+03
     -9.278  0.6610E-12  0.3240E+03
     -9.167  0.2265E-04  0.3240E+03
     -9.057  0.1519E+00  0.3240E+03
     -8.946  0.3414E+01  0.3244E+03
     -8.836  0.8075E+01  0.3253E+03
     -8.725  0.1164E+02  0.3266E+03
     -8.614  0.1369E+02  0.3281E+03
     -8.504  0.1920E+02  0.3302E+03
     -8.393  0.2002E+02  0.3324E+03
     -8.283  0.2900E+02  0.3356E+03
     -8.172  0.3145E+02  0.3391E+03
     -8.062  0.6141E+02  0.3459E+03
     -7.951  0.1533E+03  0.3628E+03
     -7.841  0.8169E+02  0.3719E+03
     -7.730  0.3310E+02  0.3755E+03
     -7.620  0.1648E+02  0.3773E+03
     -7.509  0.1121E+02  0.3786E+03
     -7.398  0.1302E+02  0.3800E+03
     -7.288  0.8942E+01  0.3810E+03
     -7.177  0.2164E+02  0.3834E+03
     -7.067  0.2021E+02  0.3856E+03
     -6.956  0.3700E+02  0.3897E+03
     -6.846  0.8176E+02  0.3988E+03
     -6.735  0.1074E+03  0.4106E+03
     -6.625  0.7472E+02  0.4189E+03
     -6.514  0.3631E+02  0.4229E+03
     -6.404  0.3041E+02  0.4263E+03
     -6.293  0.1811E+02  0.4283E+03
     -6.183  0.1366E+02  0.4298E+03
     -6.072  0.3709E+02  0.4339E+03
     -5.961  0.5673E+02  0.4402E+03
     -5.851  0.6904E+02  0.4478E+03
     -5.740  0.5765E+02  0.4542E+03
     -5.630  0.5458E+02  0.4602E+03
     -5.519  0.4909E+02  0.4656E+03
     -5.409  0.4620E+02  0.4707E+03
     -5.298  0.4146E+02  0.4753E+03
     -5.188  0.3590E+02  0.4793E+03
     -5.077  0.6293E+02  0.4862E+03
     -4.967  0.1992E+03  0.5083E+03
     -4.856  0.2223E+03  0.5328E+03
     -4.745  0.1591E+03  0.5504E+03
     -4.635  0.1362E+03  0.5655E+03
     -4.524  0.1368E+03  0.5806E+03
     -4.414  0.1182E+03  0.5937E+03
     -4.303  0.9970E+02  0.6047E+03
     -4.193  0.1543E+03  0.6217E+03
     -4.082  0.1099E+03  0.6339E+03
     -3.972  0.8358E+02  0.6431E+03
     -3.861  0.4133E+02  0.6477E+03
     -3.751  0.2708E+01  0.6480E+03
     -3.640  0.1260E-02  0.6480E+03
     -3.530  0.2271E-09  0.6480E+03
     -3.419  0.0000E+00  0.6480E+03
     -3.308  0.0000E+00  0.6480E+03
     -3.198  0.0000E+00  0.6480E+03
     -3.087  0.0000E+00  0.6480E+03
     -2.977  0.0000E+00  0.6480E+03
     -2.866  0.0000E+00  0.6480E+03
     -2.756  0.6173E-07  0.6480E+03
     -2.645  0.7724E-01  0.6480E+03
     -2.535  0.4550E+02  0.6530E+03
     -2.424  0.2937E+03  0.6855E+03
     -2.314  0.2402E+03  0.7121E+03
     -2.203  0.2175E+03  0.7361E+03
     -2.092  0.1598E+03  0.7537E+03
     -1.982  0.1325E+03  0.7684E+03
     -1.871  0.2023E+03  0.7907E+03
     -1.761  0.1819E+03  0.8109E+03
     -1.650  0.1611E+03  0.8287E+03
     -1.540  0.2215E+03  0.8532E+03
     -1.429  0.3067E+03  0.8871E+03
     -1.319  0.2620E+03  0.9160E+03
     -1.208  0.1145E+03  0.9287E+03
     -1.098  0.1250E+03  0.9425E+03
     -0.987  0.2530E+03  0.9705E+03
     -0.877  0.3100E+03  0.1005E+04
     -0.766  0.1589E+03  0.1022E+04
     -0.655  0.1412E+03  0.1038E+04
     -0.545  0.1890E+03  0.1059E+04
     -0.434  0.1676E+03  0.1077E+04
     -0.324  0.1171E+03  0.1090E+04
     -0.213  0.1607E+03  0.1108E+04
     -0.103  0.2038E+03  0.1131E+04
      0.008  0.1810E+03  0.1151E+04
      0.118  0.1794E+03  0.1170E+04
      0.229  0.1650E+03  0.1189E+04
      0.339  0.1791E+03  0.1208E+04
      0.450  0.2133E+03  0.1232E+04
      0.561  0.1617E+03  0.1250E+04
      0.671  0.1532E+03  0.1267E+04
      0.782  0.2254E+03  0.1292E+04
      0.892  0.3851E+02  0.1296E+04
      1.003  0.8518E-01  0.1296E+04
      1.113  0.1137E-06  0.1296E+04
      1.224  0.0000E+00  0.1296E+04
      1.334  0.0000E+00  0.1296E+04
      1.445  0.0000E+00  0.1296E+04
      1.555  0.0000E+00  0.1296E+04
      1.666  0.0000E+00  0.1296E+04
      1.776  0.0000E+00  0.1296E+04
      1.887  0.0000E+00  0.1296E+04
      1.998  0.0000E+00  0.1296E+04
      2.108  0.0000E+00  0.1296E+04
      2.219  0.0000E+00  0.1296E+04
      2.329  0.0000E+00  0.1296E+04
      2.440  0.0000E+00  0.1296E+04
      2.550  0.0000E+00  0.1296E+04
      2.661  0.0000E+00  0.1296E+04
      2.771  0.0000E+00  0.1296E+04
      2.882  0.0000E+00  0.1296E+04
      2.992  0.0000E+00  0.1296E+04
      3.103  0.0000E+00  0.1296E+04
      3.214  0.0000E+00  0.1296E+04
      3.324  0.0000E+00  0.1296E+04
      3.435  0.0000E+00  0.1296E+04
      3.545  0.0000E+00  0.1296E+04
      3.656  0.0000E+00  0.1296E+04
      3.766  0.0000E+00  0.1296E+04
      3.877  0.0000E+00  0.1296E+04
      3.987  0.0000E+00  0.1296E+04
      4.098  0.0000E+00  0.1296E+04
      4.208  0.0000E+00  0.1296E+04
      4.319  0.0000E+00  0.1296E+04
      4.429  0.0000E+00  0.1296E+04
      4.540  0.0000E+00  0.1296E+04
      4.651  0.0000E+00  0.1296E+04
      4.761  0.0000E+00  0.1296E+04
      4.872  0.0000E+00  0.1296E+04
      4.982  0.0000E+00  0.1296E+04
      5.093  0.0000E+00  0.1296E+04
      5.203  0.0000E+00  0.1296E+04
      5.314  0.0000E+00  0.1296E+04
      5.424  0.0000E+00  0.1296E+04
      5.535  0.0000E+00  0.1296E+04
      5.645  0.0000E+00  0.1296E+04
      5.756  0.0000E+00  0.1296E+04
      5.866  0.0000E+00  0.1296E+04
      5.977  0.0000E+00  0.1296E+04
      6.088  0.0000E+00  0.1296E+04
      6.198  0.0000E+00  0.1296E+04
      6.309  0.0000E+00  0.1296E+04
      6.419  0.0000E+00  0.1296E+04
      6.530  0.1918E-09  0.1296E+04
      6.640  0.3508E-03  0.1296E+04
      6.751  0.1985E+00  0.1296E+04
      6.861  0.2230E+01  0.1296E+04
      6.972  0.3681E+01  0.1297E+04
      7.082  0.4858E+01  0.1297E+04
      7.193  0.6521E+01  0.1298E+04
      7.304  0.7278E+01  0.1299E+04
      7.414  0.7394E+01  0.1300E+04
      7.525  0.1054E+02  0.1301E+04
      7.635  0.1130E+02  0.1302E+04
      7.746  0.9325E+01  0.1303E+04
      7.856  0.1498E+02  0.1305E+04
      7.967  0.1384E+02  0.1306E+04
      8.077  0.1565E+02  0.1308E+04
      8.188  0.1525E+02  0.1310E+04
      8.298  0.2002E+02  0.1312E+04
      8.409  0.2108E+02  0.1314E+04
      8.519  0.1689E+02  0.1316E+04
      8.630  0.2952E+02  0.1319E+04
      8.741  0.2717E+02  0.1322E+04
      8.851  0.2661E+02  0.1325E+04
      8.962  0.3959E+02  0.1330E+04
      9.072  0.2964E+02  0.1333E+04
      9.183  0.3300E+02  0.1337E+04
      9.293  0.3467E+02  0.1340E+04
      9.404  0.2594E+02  0.1343E+04
      9.514  0.3655E+02  0.1347E+04
      9.625  0.3166E+02  0.1351E+04
      9.735  0.5139E+02  0.1356E+04
      9.846  0.7958E+02  0.1365E+04
      9.957  0.1309E+03  0.1380E+04
     10.067  0.1650E+03  0.1398E+04
     10.178  0.1334E+03  0.1413E+04
     10.288  0.1198E+03  0.1426E+04
     10.399  0.1362E+03  0.1441E+04
     10.509  0.1858E+03  0.1462E+04
     10.620  0.2532E+03  0.1490E+04
     10.730  0.1928E+03  0.1511E+04
     10.841  0.1567E+03  0.1528E+04
     10.951  0.1031E+03  0.1540E+04
     11.062  0.1108E+03  0.1552E+04
     11.172  0.9347E+02  0.1562E+04
     11.283  0.4870E+02  0.1568E+04
     11.394  0.4469E+01  0.1568E+04
     11.504  0.2355E-01  0.1568E+04
     11.615  0.1373E-06  0.1568E+04
     11.725  0.0000E+00  0.1568E+04
     11.836  0.0000E+00  0.1568E+04
     11.946  0.0000E+00  0.1568E+04
     12.057  0.0000E+00  0.1568E+04
     12.167  0.0000E+00  0.1568E+04
     12.278  0.0000E+00  0.1568E+04
     12.388  0.0000E+00  0.1568E+04
     12.499  0.0000E+00  0.1568E+04
     12.610  0.0000E+00  0.1568E+04
     12.720  0.0000E+00  0.1568E+04
     12.831  0.0000E+00  0.1568E+04
