  243  243    1    1
  0.1311381E+02  0.1499190E-08  0.1499190E-08  0.1637160E-08  0.5000000E-15
  1.000000000000000E-004
  CAR 
 (Si O2)81  (P1) ~ Ciellie_MCM41 (MD     
   1296     15    784
 
  0.0000000E+00  0.0000000E+00  0.0000000E+00  0.8000000E-02
    1      -18.824438
    2      -18.615612
    3      -18.615610
    4      -18.536826
    5      -18.536818
    6      -18.536768
    7      -18.536650
    8      -18.536599
    9      -18.536591
   10      -18.407091
   11      -18.407091
   12      -18.407047
   13      -18.407045
   14      -18.407012
   15      -18.407010
   16      -18.406921
   17      -18.406919
   18      -18.406886
   19      -18.406884
   20      -18.406838
   21      -18.406837
   22      -18.279487
   23      -18.279485
   24      -18.279484
   25      -18.279482
   26      -18.116347
   27      -18.116345
   28      -18.116312
   29      -18.116310
   30      -18.045030
   31      -18.045029
   32      -17.949323
   33      -17.949322
   34      -17.949271
   35      -17.949271
   36      -17.949200
   37      -17.949198
   38      -17.949188
   39      -17.949187
   40      -17.949118
   41      -17.949118
   42      -17.949065
   43      -17.949064
   44      -17.799746
   45      -17.799746
   46      -17.799743
   47      -17.799743
   48      -17.672605
   49      -17.672601
   50      -17.672588
   51      -17.672330
   52      -17.672327
   53      -17.672316
   54      -17.457537
   55      -17.457536
   56      -17.457534
   57      -17.457533
   58      -17.313544
   59      -17.313540
   60      -17.288644
   61      -17.288598
   62      -17.275986
   63      -17.275874
   64      -17.275850
   65      -17.275759
   66      -17.275740
   67      -17.275631
   68      -17.136330
   69      -17.136329
   70      -17.136328
   71      -17.136328
   72      -17.136271
   73      -17.136269
   74      -17.136267
   75      -17.136265
   76      -17.136210
   77      -17.136209
   78      -17.136209
   79      -17.136208
   80      -16.692155
   81      -16.692153
   82      -16.666308
   83      -16.666306
   84      -16.666306
   85      -16.666303
   86      -16.658511
   87      -16.654968
   88      -16.654967
   89      -16.654953
   90      -16.654953
   91      -16.653506
   92      -16.653505
   93      -16.653459
   94      -16.653457
   95      -16.653379
   96      -16.653376
   97      -16.653317
   98      -16.653315
   99      -16.653234
  100      -16.653233
  101      -16.653172
  102      -16.653170
  103      -16.651894
  104      -16.651890
  105      -16.651888
  106      -16.651827
  107      -16.651824
  108      -16.651820
  109      -16.647258
  110      -16.647254
  111      -16.646833
  112      -16.646831
  113      -16.645730
  114      -16.645728
  115      -16.645705
  116      -16.645703
  117      -16.645691
  118      -16.645689
  119      -16.645655
  120      -16.645653
  121      -16.645633
  122      -16.645629
  123      -16.645581
  124      -16.645577
  125      -16.644828
  126      -16.644823
  127      -16.644787
  128      -16.644692
  129      -16.644649
  130      -16.644637
  131      -16.639532
  132      -16.639530
  133      -16.639489
  134      -16.639486
  135      -16.638867
  136      -16.638866
  137      -16.638863
  138      -16.638863
  139      -16.635627
  140      -16.635514
  141      -16.635486
  142      -16.635396
  143      -16.635372
  144      -16.635251
  145      -16.627608
  146      -16.627607
  147      -16.626807
  148      -16.626807
  149      -16.626714
  150      -16.626713
  151      -16.626698
  152      -16.626696
  153      -16.626595
  154      -16.626593
  155      -16.626581
  156      -16.626580
  157      -16.626470
  158      -16.626470
  159      -16.621861
  160      -16.621858
  161      -16.620444
  162      -16.620391
  163       -8.885779
  164       -8.885776
  165       -8.192270
  166       -8.192269
  167       -8.192240
  168       -8.192239
  169       -8.192203
  170       -8.192201
  171       -8.192177
  172       -8.192174
  173       -8.192138
  174       -8.192137
  175       -8.192108
  176       -8.192108
  177       -8.077987
  178       -8.077987
  179       -7.956822
  180       -7.956820
  181       -7.956797
  182       -7.956747
  183       -7.956727
  184       -7.956716
  185       -7.826443
  186       -7.826414
  187       -7.673558
  188       -7.673557
  189       -7.673556
  190       -7.673555
  191       -7.181716
  192       -7.181715
  193       -7.181703
  194       -7.181702
  195       -7.181696
  196       -7.181692
  197       -6.765238
  198       -6.765238
  199       -6.765236
  200       -6.765235
  201       -6.656567
  202       -6.656567
  203       -6.656561
  204       -6.656560
  205       -6.656521
  206       -6.656521
  207       -6.656479
  208       -6.656478
  209       -6.656438
  210       -6.656436
  211       -6.656436
  212       -6.656436
  213       -6.330848
  214       -6.330847
  215       -6.159304
  216       -6.159301
  217       -6.159270
  218       -6.159266
  219       -6.156276
  220       -6.156273
  221       -6.156273
  222       -6.156270
  223       -5.718675
  224       -5.718674
  225       -5.718667
  226       -5.718666
  227       -5.718625
  228       -5.718624
  229       -5.718623
  230       -5.718622
  231       -5.718590
  232       -5.718589
  233       -5.718584
  234       -5.718582
  235       -5.149677
  236       -5.149675
  237       -5.145487
  238       -5.145485
  239       -5.102140
  240       -5.102140
  241       -5.055114
  242       -5.053412
  243       -5.053412
  244       -5.053408
  245       -5.053391
  246       -5.053390
  247       -5.053388
  248       -5.035671
  249       -5.035643
  250       -5.035601
  251       -5.035574
  252       -5.035564
  253       -5.035494
  254       -4.937718
  255       -4.937717
  256       -4.937688
  257       -4.937687
  258       -4.937684
  259       -4.937682
  260       -4.937639
  261       -4.937638
  262       -4.937638
  263       -4.937636
  264       -4.937599
  265       -4.937597
  266       -4.869821
  267       -4.869797
  268       -4.869787
  269       -4.869752
  270       -4.869749
  271       -4.869735
  272       -4.842329
  273       -4.842327
  274       -4.842304
  275       -4.842302
  276       -4.822921
  277       -4.822921
  278       -4.822921
  279       -4.822921
  280       -4.725677
  281       -4.633073
  282       -4.633066
  283       -4.509565
  284       -4.509565
  285       -4.509556
  286       -4.509556
  287       -4.509521
  288       -4.509520
  289       -4.509518
  290       -4.509517
  291       -4.509479
  292       -4.509479
  293       -4.509467
  294       -4.509467
  295       -4.443734
  296       -4.443731
  297       -4.443730
  298       -4.443727
  299       -4.269721
  300       -4.269720
  301       -4.269720
  302       -4.269719
  303       -4.253432
  304       -4.253431
  305       -4.253397
  306       -4.253396
  307       -4.253391
  308       -4.253389
  309       -4.253386
  310       -4.253385
  311       -4.253381
  312       -4.253379
  313       -4.253341
  314       -4.253340
  315       -4.106082
  316       -4.106062
  317       -4.106052
  318       -4.106039
  319       -4.106030
  320       -4.106020
  321       -4.003767
  322       -4.003764
  323       -3.855226
  324       -3.855224
  325       -2.538064
  326       -2.538062
  327       -2.538061
  328       -2.538059
  329       -2.481723
  330       -2.481723
  331       -2.481706
  332       -2.481706
  333       -2.481646
  334       -2.481645
  335       -2.481640
  336       -2.481640
  337       -2.481580
  338       -2.481580
  339       -2.481564
  340       -2.481563
  341       -2.456131
  342       -2.456115
  343       -2.456114
  344       -2.456038
  345       -2.456034
  346       -2.456021
  347       -2.322544
  348       -2.322543
  349       -2.322423
  350       -2.322422
  351       -2.283480
  352       -2.283479
  353       -2.283466
  354       -2.283465
  355       -2.283421
  356       -2.283421
  357       -2.283363
  358       -2.283363
  359       -2.283324
  360       -2.283323
  361       -2.283309
  362       -2.283309
  363       -2.223852
  364       -2.216313
  365       -2.216313
  366       -2.216311
  367       -2.216311
  368       -2.185521
  369       -2.185500
  370       -2.185487
  371       -2.185410
  372       -2.185383
  373       -2.185362
  374       -2.180927
  375       -2.180927
  376       -2.179853
  377       -2.179840
  378       -2.147992
  379       -2.147991
  380       -2.147990
  381       -2.147989
  382       -2.020175
  383       -2.020173
  384       -2.014377
  385       -2.014375
  386       -1.892958
  387       -1.892956
  388       -1.889353
  389       -1.889288
  390       -1.889262
  391       -1.889261
  392       -1.889242
  393       -1.889173
  394       -1.832812
  395       -1.832810
  396       -1.832781
  397       -1.832779
  398       -1.832757
  399       -1.832756
  400       -1.832723
  401       -1.832721
  402       -1.832678
  403       -1.832676
  404       -1.832619
  405       -1.832617
  406       -1.829795
  407       -1.680077
  408       -1.680047
  409       -1.679903
  410       -1.679878
  411       -1.679834
  412       -1.679777
  413       -1.648129
  414       -1.648129
  415       -1.648104
  416       -1.648104
  417       -1.648083
  418       -1.648082
  419       -1.648078
  420       -1.648077
  421       -1.648049
  422       -1.648048
  423       -1.648034
  424       -1.648033
  425       -1.555951
  426       -1.555949
  427       -1.497230
  428       -1.497230
  429       -1.497171
  430       -1.497170
  431       -1.497168
  432       -1.497168
  433       -1.497159
  434       -1.497159
  435       -1.497158
  436       -1.497158
  437       -1.497106
  438       -1.497105
  439       -1.484667
  440       -1.484667
  441       -1.406574
  442       -1.406573
  443       -1.373014
  444       -1.373011
  445       -1.373005
  446       -1.373002
  447       -1.371082
  448       -1.371045
  449       -1.370968
  450       -1.370963
  451       -1.370936
  452       -1.370883
  453       -1.334389
  454       -1.334389
  455       -1.334389
  456       -1.334389
  457       -1.310547
  458       -1.310545
  459       -1.310511
  460       -1.310510
  461       -1.275161
  462       -1.275161
  463       -1.275160
  464       -1.275160
  465       -1.223633
  466       -1.223620
  467       -1.223588
  468       -1.223571
  469       -1.223518
  470       -1.223507
  471       -1.148843
  472       -1.148843
  473       -1.120753
  474       -1.120752
  475       -1.044594
  476       -1.044589
  477       -1.041191
  478       -1.041188
  479       -0.982328
  480       -0.982320
  481       -0.982318
  482       -0.982317
  483       -0.982099
  484       -0.982094
  485       -0.981503
  486       -0.973787
  487       -0.973397
  488       -0.929853
  489       -0.929852
  490       -0.929827
  491       -0.929826
  492       -0.929773
  493       -0.929772
  494       -0.929739
  495       -0.929738
  496       -0.929716
  497       -0.929715
  498       -0.929642
  499       -0.929641
  500       -0.866973
  501       -0.866972
  502       -0.866947
  503       -0.866946
  504       -0.866913
  505       -0.866912
  506       -0.866878
  507       -0.866878
  508       -0.866860
  509       -0.866859
  510       -0.866837
  511       -0.866836
  512       -0.695503
  513       -0.695498
  514       -0.695301
  515       -0.695295
  516       -0.656490
  517       -0.656489
  518       -0.656430
  519       -0.656429
  520       -0.656417
  521       -0.656416
  522       -0.656340
  523       -0.656339
  524       -0.656339
  525       -0.656339
  526       -0.656283
  527       -0.656282
  528       -0.631112
  529       -0.631111
  530       -0.631108
  531       -0.631108
  532       -0.445148
  533       -0.445110
  534       -0.445040
  535       -0.444993
  536       -0.444985
  537       -0.444870
  538       -0.377968
  539       -0.377968
  540       -0.377965
  541       -0.377965
  542       -0.326656
  543       -0.326653
  544       -0.282537
  545       -0.282519
  546       -0.282329
  547       -0.282311
  548       -0.282302
  549       -0.282279
  550       -0.275792
  551       -0.275792
  552       -0.275783
  553       -0.275782
  554       -0.225899
  555       -0.225669
  556       -0.138897
  557       -0.138896
  558       -0.138882
  559       -0.138882
  560       -0.138876
  561       -0.138875
  562       -0.138854
  563       -0.138853
  564       -0.138784
  565       -0.138783
  566       -0.138762
  567       -0.138761
  568       -0.069765
  569       -0.069732
  570       -0.069712
  571       -0.069646
  572       -0.069641
  573       -0.069603
  574        0.078621
  575        0.078621
  576        0.078625
  577        0.078625
  578        0.127904
  579        0.127906
  580        0.127916
  581        0.127919
  582        0.128044
  583        0.128046
  584        0.128054
  585        0.128057
  586        0.128090
  587        0.128092
  588        0.128112
  589        0.128114
  590        0.143672
  591        0.143672
  592        0.143678
  593        0.143678
  594        0.249879
  595        0.249880
  596        0.249888
  597        0.249888
  598        0.249909
  599        0.249910
  600        0.249914
  601        0.249914
  602        0.249939
  603        0.249939
  604        0.249947
  605        0.249947
  606        0.311213
  607        0.311219
  608        0.311419
  609        0.311423
  610        0.318725
  611        0.318740
  612        0.415519
  613        0.415521
  614        0.415527
  615        0.415528
  616        0.436927
  617        0.436930
  618        0.460112
  619        0.460113
  620        0.460135
  621        0.460136
  622        0.460139
  623        0.460142
  624        0.612902
  625        0.662090
  626        0.662091
  627        0.662122
  628        0.662123
  629        0.662131
  630        0.662132
  631        0.662162
  632        0.662163
  633        0.662196
  634        0.662197
  635        0.662252
  636        0.662253
  637        0.728090
  638        0.728095
  639        0.728151
  640        0.728166
  641        0.728182
  642        0.728257
  643        0.730299
  644        0.730301
  645        0.752555
  646        0.752563
  647        0.796661
  648        0.796661
  649        6.740178
  650        7.687821
  651        7.687823
  652        8.062480
  653        8.062551
  654        8.062574
  655        8.062678
  656        8.062831
  657        8.062848
  658        8.747820
  659        8.747822
  660        8.747892
  661        8.747894
  662        8.747897
  663        8.747899
  664        8.748010
  665        8.748012
  666        8.748148
  667        8.748150
  668        8.748153
  669        8.748155
  670        9.465057
  671        9.465058
  672        9.551319
  673        9.551322
  674        9.552036
  675        9.552037
  676        9.552757
  677        9.552789
  678        9.873518
  679        9.873518
  680        9.873539
  681        9.873539
  682        9.906610
  683        9.906653
  684        9.906773
  685        9.906830
  686        9.906869
  687        9.906943
  688        9.940641
  689        9.940642
  690        9.940647
  691        9.940648
  692       10.006411
  693       10.006876
  694       10.131457
  695       10.131457
  696       10.131471
  697       10.131472
  698       10.131582
  699       10.131582
  700       10.131583
  701       10.131583
  702       10.131687
  703       10.131688
  704       10.131716
  705       10.131716
  706       10.202431
  707       10.202437
  708       10.302013
  709       10.302575
  710       10.343255
  711       10.343257
  712       10.343277
  713       10.343278
  714       10.343375
  715       10.343376
  716       10.343417
  717       10.343418
  718       10.343536
  719       10.343537
  720       10.343542
  721       10.343543
  722       10.389610
  723       10.389611
  724       10.489661
  725       10.489689
  726       10.489708
  727       10.489747
  728       10.489806
  729       10.489876
  730       10.507943
  731       10.507958
  732       10.542342
  733       10.542348
  734       10.542402
  735       10.542425
  736       10.542666
  737       10.542677
  738       10.542720
  739       10.542724
  740       10.542842
  741       10.542856
  742       10.542941
  743       10.542953
  744       10.570484
  745       10.570498
  746       10.570503
  747       10.570522
  748       10.570538
  749       10.570641
  750       10.623445
  751       10.623449
  752       10.623462
  753       10.623485
  754       10.772605
  755       10.772625
  756       10.772666
  757       10.772700
  758       10.772735
  759       10.772742
  760       10.772764
  761       10.772798
  762       10.772837
  763       10.772873
  764       10.773160
  765       10.774339
  766       10.825790
  767       10.825850
  768       10.826337
  769       10.827818
  770       10.890518
  771       10.890678
  772       10.890908
  773       10.891125
  774       10.891737
  775       10.895823
  776       11.000403
  777       11.003303
  778       11.016574
  779       11.024443
  780       11.064658
  781       11.066424
  782       11.069786
  783       11.077979
  784       11.121370
 
  0.2000000E+00  0.3983939E-17  0.3951065E-23  0.4800000E-01
    1      -18.811308
    2      -18.632188
    3      -18.605213
    4      -18.605211
    5      -18.577080
    6      -18.577074
    7      -18.477896
    8      -18.477881
    9      -18.468129
   10      -18.468126
   11      -18.438806
   12      -18.431565
   13      -18.431564
   14      -18.431553
   15      -18.431550
   16      -18.374646
   17      -18.374646
   18      -18.374622
   19      -18.374618
   20      -18.355933
   21      -18.355929
   22      -18.286769
   23      -18.286767
   24      -18.286756
   25      -18.286753
   26      -18.218904
   27      -18.218877
   28      -18.041269
   29      -18.041268
   30      -18.014296
   31      -18.014265
   32      -17.984226
   33      -17.984225
   34      -17.964546
   35      -17.964545
   36      -17.964532
   37      -17.964530
   38      -17.925762
   39      -17.925760
   40      -17.925734
   41      -17.925730
   42      -17.909695
   43      -17.909693
   44      -17.817214
   45      -17.817212
   46      -17.817197
   47      -17.817195
   48      -17.791445
   49      -17.742087
   50      -17.742069
   51      -17.619873
   52      -17.619868
   53      -17.551091
   54      -17.430399
   55      -17.430396
   56      -17.430387
   57      -17.430387
   58      -17.310512
   59      -17.310501
   60      -17.306643
   61      -17.287908
   62      -17.280431
   63      -17.280404
   64      -17.278855
   65      -17.278630
   66      -17.278596
   67      -17.273766
   68      -17.248658
   69      -17.248656
   70      -17.205685
   71      -17.205682
   72      -17.205647
   73      -17.205644
   74      -17.085352
   75      -17.085350
   76      -17.085324
   77      -17.085322
   78      -17.011271
   79      -17.011269
   80      -16.722425
   81      -16.722424
   82      -16.665034
   83      -16.665031
   84      -16.665022
   85      -16.665020
   86      -16.658644
   87      -16.658641
   88      -16.657899
   89      -16.656914
   90      -16.656912
   91      -16.656892
   92      -16.656888
   93      -16.655132
   94      -16.655132
   95      -16.655127
   96      -16.655126
   97      -16.653546
   98      -16.652824
   99      -16.652818
  100      -16.652063
  101      -16.652061
  102      -16.652042
  103      -16.652039
  104      -16.651682
  105      -16.651629
  106      -16.651579
  107      -16.648878
  108      -16.648823
  109      -16.648819
  110      -16.648295
  111      -16.648286
  112      -16.648270
  113      -16.648270
  114      -16.648207
  115      -16.648203
  116      -16.647261
  117      -16.647259
  118      -16.646685
  119      -16.646625
  120      -16.644129
  121      -16.644128
  122      -16.644077
  123      -16.644073
  124      -16.642993
  125      -16.642944
  126      -16.641401
  127      -16.641397
  128      -16.641238
  129      -16.641219
  130      -16.641151
  131      -16.641148
  132      -16.639571
  133      -16.638929
  134      -16.638903
  135      -16.638698
  136      -16.637531
  137      -16.637529
  138      -16.637522
  139      -16.637521
  140      -16.636533
  141      -16.636502
  142      -16.633020
  143      -16.632989
  144      -16.631285
  145      -16.630181
  146      -16.630179
  147      -16.628477
  148      -16.628475
  149      -16.628472
  150      -16.628470
  151      -16.625923
  152      -16.625922
  153      -16.625274
  154      -16.625273
  155      -16.625261
  156      -16.625260
  157      -16.624109
  158      -16.624106
  159      -16.623189
  160      -16.623187
  161      -16.622091
  162      -16.621208
  163       -8.851483
  164       -8.851480
  165       -8.403183
  166       -8.403180
  167       -8.279057
  168       -8.279055
  169       -8.279050
  170       -8.279048
  171       -8.073424
  172       -8.073423
  173       -8.073410
  174       -8.073406
  175       -8.069468
  176       -8.069465
  177       -7.997779
  178       -7.997776
  179       -7.981874
  180       -7.979352
  181       -7.979343
  182       -7.949135
  183       -7.949128
  184       -7.923754
  185       -7.834267
  186       -7.793951
  187       -7.709719
  188       -7.709718
  189       -7.709708
  190       -7.709705
  191       -7.373653
  192       -7.249847
  193       -7.249836
  194       -7.060751
  195       -7.060731
  196       -7.013335
  197       -6.769772
  198       -6.769770
  199       -6.769760
  200       -6.769758
  201       -6.762093
  202       -6.762091
  203       -6.708592
  204       -6.708590
  205       -6.708585
  206       -6.708583
  207       -6.606776
  208       -6.606775
  209       -6.606773
  210       -6.606772
  211       -6.554213
  212       -6.554212
  213       -6.422238
  214       -6.422213
  215       -6.347802
  216       -6.347802
  217       -6.112128
  218       -6.112125
  219       -6.112119
  220       -6.112117
  221       -5.895468
  222       -5.895433
  223       -5.791682
  224       -5.791680
  225       -5.783579
  226       -5.783578
  227       -5.783540
  228       -5.783537
  229       -5.693317
  230       -5.693316
  231       -5.693284
  232       -5.693282
  233       -5.619867
  234       -5.619866
  235       -5.254890
  236       -5.254889
  237       -5.208630
  238       -5.208579
  239       -5.170796
  240       -5.134356
  241       -5.134354
  242       -5.107213
  243       -5.107202
  244       -5.050482
  245       -5.041793
  246       -5.031062
  247       -4.991731
  248       -4.991730
  249       -4.983425
  250       -4.983423
  251       -4.969581
  252       -4.969548
  253       -4.949199
  254       -4.949199
  255       -4.949167
  256       -4.949165
  257       -4.933445
  258       -4.933386
  259       -4.925096
  260       -4.910466
  261       -4.910465
  262       -4.910430
  263       -4.910428
  264       -4.905368
  265       -4.905366
  266       -4.871117
  267       -4.869578
  268       -4.869536
  269       -4.867615
  270       -4.867576
  271       -4.863715
  272       -4.852915
  273       -4.852899
  274       -4.842025
  275       -4.842011
  276       -4.828773
  277       -4.828773
  278       -4.828766
  279       -4.828766
  280       -4.764482
  281       -4.653629
  282       -4.612258
  283       -4.612257
  284       -4.576334
  285       -4.551196
  286       -4.551195
  287       -4.551189
  288       -4.551187
  289       -4.466365
  290       -4.466364
  291       -4.466356
  292       -4.466355
  293       -4.440337
  294       -4.440334
  295       -4.440329
  296       -4.440327
  297       -4.438718
  298       -4.438717
  299       -4.302801
  300       -4.302799
  301       -4.282932
  302       -4.282930
  303       -4.282920
  304       -4.282918
  305       -4.276582
  306       -4.276580
  307       -4.276580
  308       -4.276579
  309       -4.226468
  310       -4.226386
  311       -4.226383
  312       -4.226377
  313       -4.226374
  314       -4.186624
  315       -4.186622
  316       -4.153994
  317       -4.153970
  318       -4.045258
  319       -4.045226
  320       -4.017364
  321       -4.017361
  322       -4.011157
  323       -3.871580
  324       -3.871569
  325       -2.533193
  326       -2.533190
  327       -2.533188
  328       -2.533186
  329       -2.503723
  330       -2.503721
  331       -2.497164
  332       -2.497163
  333       -2.497163
  334       -2.497162
  335       -2.463439
  336       -2.463439
  337       -2.463434
  338       -2.463433
  339       -2.450468
  340       -2.450449
  341       -2.447570
  342       -2.446294
  343       -2.446284
  344       -2.434922
  345       -2.432540
  346       -2.432540
  347       -2.379990
  348       -2.379989
  349       -2.353782
  350       -2.353691
  351       -2.330227
  352       -2.330226
  353       -2.330187
  354       -2.330186
  355       -2.297304
  356       -2.297203
  357       -2.270629
  358       -2.270626
  359       -2.270554
  360       -2.270552
  361       -2.236106
  362       -2.229863
  363       -2.229862
  364       -2.229848
  365       -2.229848
  366       -2.227263
  367       -2.214479
  368       -2.211560
  369       -2.211555
  370       -2.208961
  371       -2.208960
  372       -2.185649
  373       -2.185606
  374       -2.171978
  375       -2.171977
  376       -2.171281
  377       -2.167998
  378       -2.085232
  379       -2.085229
  380       -2.085134
  381       -2.085131
  382       -2.016979
  383       -2.016978
  384       -2.006534
  385       -2.006500
  386       -1.988222
  387       -1.918507
  388       -1.918491
  389       -1.889198
  390       -1.889195
  391       -1.859536
  392       -1.859533
  393       -1.859412
  394       -1.859410
  395       -1.843775
  396       -1.843773
  397       -1.839547
  398       -1.839545
  399       -1.839461
  400       -1.839459
  401       -1.835385
  402       -1.835366
  403       -1.823315
  404       -1.823313
  405       -1.793750
  406       -1.784809
  407       -1.774905
  408       -1.739792
  409       -1.739639
  410       -1.699591
  411       -1.699590
  412       -1.682263
  413       -1.682261
  414       -1.682217
  415       -1.682216
  416       -1.617562
  417       -1.617402
  418       -1.615569
  419       -1.615568
  420       -1.615522
  421       -1.615519
  422       -1.597903
  423       -1.597902
  424       -1.539216
  425       -1.539214
  426       -1.527260
  427       -1.502284
  428       -1.502282
  429       -1.482506
  430       -1.482506
  431       -1.479952
  432       -1.479950
  433       -1.479924
  434       -1.479922
  435       -1.475183
  436       -1.475182
  437       -1.474429
  438       -1.474423
  439       -1.472689
  440       -1.472688
  441       -1.472628
  442       -1.472627
  443       -1.422964
  444       -1.419783
  445       -1.419781
  446       -1.419658
  447       -1.419654
  448       -1.410490
  449       -1.410454
  450       -1.396645
  451       -1.396603
  452       -1.365753
  453       -1.365677
  454       -1.359319
  455       -1.359317
  456       -1.359222
  457       -1.359220
  458       -1.329886
  459       -1.311224
  460       -1.306378
  461       -1.306374
  462       -1.260571
  463       -1.260512
  464       -1.203797
  465       -1.203796
  466       -1.203736
  467       -1.203733
  468       -1.182138
  469       -1.182099
  470       -1.141363
  471       -1.117143
  472       -1.117142
  473       -1.103095
  474       -1.103095
  475       -1.015239
  476       -1.015237
  477       -1.015042
  478       -0.992411
  479       -0.992410
  480       -0.992244
  481       -0.986055
  482       -0.975818
  483       -0.975661
  484       -0.973736
  485       -0.971139
  486       -0.965803
  487       -0.965554
  488       -0.964345
  489       -0.964342
  490       -0.964202
  491       -0.964201
  492       -0.950888
  493       -0.950805
  494       -0.944229
  495       -0.944227
  496       -0.944164
  497       -0.944162
  498       -0.930695
  499       -0.930695
  500       -0.894054
  501       -0.894053
  502       -0.892982
  503       -0.892980
  504       -0.892824
  505       -0.892822
  506       -0.828420
  507       -0.828419
  508       -0.828306
  509       -0.828305
  510       -0.779551
  511       -0.779325
  512       -0.777795
  513       -0.777793
  514       -0.771655
  515       -0.771653
  516       -0.687982
  517       -0.687980
  518       -0.687958
  519       -0.687956
  520       -0.648843
  521       -0.648843
  522       -0.648796
  523       -0.648795
  524       -0.598714
  525       -0.598587
  526       -0.583450
  527       -0.583448
  528       -0.583341
  529       -0.583339
  530       -0.558775
  531       -0.558774
  532       -0.506126
  533       -0.506073
  534       -0.477176
  535       -0.477114
  536       -0.455489
  537       -0.415597
  538       -0.407148
  539       -0.407148
  540       -0.407139
  541       -0.407138
  542       -0.306936
  543       -0.306933
  544       -0.301252
  545       -0.253862
  546       -0.250886
  547       -0.250782
  548       -0.250090
  549       -0.245174
  550       -0.241967
  551       -0.241826
  552       -0.239085
  553       -0.238349
  554       -0.238348
  555       -0.238340
  556       -0.238339
  557       -0.222660
  558       -0.222659
  559       -0.165759
  560       -0.165757
  561       -0.165637
  562       -0.165636
  563       -0.159424
  564       -0.159302
  565       -0.138903