 243 243   0   0
  0.1311381E+02  0.1499190E-08  0.1499190E-08  0.1637160E-08  0.5000000E-15
  1.000000000000000E-004
  CAR 
 (Si O2)81  (P1) ~ Ciellie_MCM41 (MD     
     12.80762458    -20.33072826  301      1.11254756      1.00000000
    -20.331  0.0000E+00  0.0000E+00
    -20.220  0.0000E+00  0.0000E+00
    -20.110  0.0000E+00  0.0000E+00
    -19.999  0.0000E+00  0.0000E+00
    -19.889  0.0000E+00  0.0000E+00
    -19.778  0.0000E+00  0.0000E+00
    -19.668  0.0000E+00  0.0000E+00
    -19.558  0.0000E+00  0.0000E+00
    -19.447  0.0000E+00  0.0000E+00
    -19.337  0.0000E+00  0.0000E+00
    -19.226  0.0000E+00  0.0000E+00
    -19.116  0.1379E-16  0.1523E-17
    -19.005  0.6063E-07  0.6697E-08
    -18.895  0.2644E-01  0.2921E-02
    -18.784  0.6400E+01  0.7098E+00
    -18.674  0.3170E+02  0.4211E+01
    -18.563  0.5355E+02  0.1013E+02
    -18.453  0.7968E+02  0.1893E+02
    -18.342  0.1561E+03  0.3617E+02
    -18.232  0.1604E+03  0.5390E+02
    -18.122  0.3073E+02  0.5729E+02
    -18.011  0.4194E+02  0.6192E+02
    -17.901  0.1152E+03  0.7465E+02
    -17.790  0.1801E+03  0.9454E+02
    -17.680  0.6476E+02  0.1017E+03
    -17.569  0.3159E+02  0.1052E+03
    -17.459  0.2546E+02  0.1080E+03
    -17.348  0.6518E+02  0.1152E+03
    -17.238  0.1988E+03  0.1372E+03
    -17.127  0.9268E+02  0.1474E+03
    -17.017  0.5129E+02  0.1531E+03
    -16.906  0.3597E+02  0.1570E+03
    -16.796  0.2518E+02  0.1598E+03
    -16.686  0.2013E+03  0.1821E+03
    -16.575  0.1233E+04  0.3182E+03
    -16.465  0.5224E+02  0.3240E+03
    -16.354  0.1526E-02  0.3240E+03
    -16.244  0.9460E-11  0.3240E+03
    -16.133  0.0000E+00  0.3240E+03
    -16.023  0.0000E+00  0.3240E+03
    -15.912  0.0000E+00  0.3240E+03
    -15.802  0.0000E+00  0.3240E+03
    -15.691  0.0000E+00  0.3240E+03
    -15.581  0.0000E+00  0.3240E+03
    -15.470  0.0000E+00  0.3240E+03
    -15.360  0.0000E+00  0.3240E+03
    -15.250  0.0000E+00  0.3240E+03
    -15.139  0.0000E+00  0.3240E+03
    -15.029  0.0000E+00  0.3240E+03
    -14.918  0.0000E+00  0.3240E+03
    -14.808  0.0000E+00  0.3240E+03
    -14.697  0.0000E+00  0.3240E+03
    -14.587  0.0000E+00  0.3240E+03
    -14.476  0.0000E+00  0.3240E+03
    -14.366  0.0000E+00  0.3240E+03
    -14.255  0.0000E+00  0.3240E+03
    -14.145  0.0000E+00  0.3240E+03
    -14.034  0.0000E+00  0.3240E+03
    -13.924  0.0000E+00  0.3240E+03
    -13.814  0.0000E+00  0.3240E+03
    -13.703  0.0000E+00  0.3240E+03
    -13.593  0.0000E+00  0.3240E+03
    -13.482  0.0000E+00  0.3240E+03
    -13.372  0.0000E+00  0.3240E+03
    -13.261  0.0000E+00  0.3240E+03
    -13.151  0.0000E+00  0.3240E+03
    -13.040  0.0000E+00  0.3240E+03
    -12.930  0.0000E+00  0.3240E+03
    -12.819  0.0000E+00  0.3240E+03
    -12.709  0.0000E+00  0.3240E+03
    -12.598  0.0000E+00  0.3240E+03
    -12.488  0.0000E+00  0.3240E+03
    -12.378  0.0000E+00  0.3240E+03
    -12.267  0.0000E+00  0.3240E+03
    -12.157  0.0000E+00  0.3240E+03
    -12.046  0.0000E+00  0.3240E+03
    -11.936  0.0000E+00  0.3240E+03
    -11.825  0.0000E+00  0.3240E+03
    -11.715  0.0000E+00  0.3240E+03
    -11.604  0.0000E+00  0.3240E+03
    -11.494  0.0000E+00  0.3240E+03
    -11.383  0.0000E+00  0.3240E+03
    -11.273  0.0000E+00  0.3240E+03
    -11.162  0.0000E+00  0.3240E+03
    -11.052  0.0000E+00  0.3240E+03
    -10.942  0.0000E+00  0.3240E+03
    -10.831  0.0000E+00  0.3240E+03
    -10.721  0.0000E+00  0.3240E+03
    -10.610  0.0000E+00  0.3240E+03
    -10.500  0.0000E+00  0.3240E+03
    -10.389  0.0000E+00  0.3240E+03
    -10.279  0.0000E+00  0.3240E+03
    -10.168  0.0000E+00  0.3240E+03
    -10.058  0.0000E+00  0.3240E+03
     -9.947  0.0000E+00  0.3240E+03
     -9.837  0.0000E+00  0.3240E+03
     -9.726  0.0000E+00  0.3240E+03
     -9.616  0.0000E+00  0.3240E+03
     -9.506  0.0000E+00  0.3240E+03
     -9.395  0.0000E+00  0.3240E+03
     -9.285  0.1061E-12  0.3240E+03
     -9.174  0.7849E-05  0.3240E+03
     -9.064  0.1083E+00  0.3240E+03
     -8.953  0.3120E+01  0.3244E+03
     -8.843  0.7710E+01  0.3252E+03
     -8.732  0.1109E+02  0.3264E+03
     -8.622  0.1432E+02  0.3280E+03
     -8.511  0.1771E+02  0.3300E+03
     -8.401  0.2156E+02  0.3324E+03
     -8.290  0.2643E+02  0.3353E+03
     -8.180  0.3350E+02  0.3390E+03
     -8.070  0.5414E+02  0.3450E+03
     -7.959  0.1528E+03  0.3618E+03
     -7.849  0.8705E+02  0.3714E+03
     -7.738  0.3556E+02  0.3754E+03
     -7.628  0.1725E+02  0.3773E+03
     -7.517  0.1154E+02  0.3786E+03
     -7.407  0.1117E+02  0.3798E+03
     -7.296  0.1252E+02  0.3812E+03
     -7.186  0.1542E+02  0.3829E+03
     -7.075  0.2335E+02  0.3855E+03
     -6.965  0.3681E+02  0.3895E+03
     -6.854  0.7364E+02  0.3977E+03
     -6.744  0.1116E+03  0.4100E+03
     -6.634  0.7368E+02  0.4181E+03
     -6.523  0.4254E+02  0.4228E+03
     -6.413  0.2832E+02  0.4259E+03
     -6.302  0.1970E+02  0.4281E+03
     -6.192  0.1443E+02  0.4297E+03
     -6.081  0.3309E+02  0.4334E+03
     -5.971  0.5641E+02  0.4396E+03
     -5.860  0.6875E+02  0.4472E+03
     -5.750  0.5942E+02  0.4538E+03
     -5.639  0.5340E+02  0.4597E+03
     -5.529  0.4963E+02  0.4651E+03
     -5.418  0.4629E+02  0.4703E+03
     -5.308  0.4237E+02  0.4749E+03
     -5.198  0.3658E+02  0.4790E+03
     -5.087  0.5609E+02  0.4852E+03
     -4.977  0.1856E+03  0.5057E+03
     -4.866  0.2288E+03  0.5310E+03
     -4.756  0.1621E+03  0.5489E+03
     -4.645  0.1371E+03  0.5640E+03
     -4.535  0.1366E+03  0.5791E+03
     -4.424  0.1237E+03  0.5928E+03
     -4.314  0.9517E+02  0.6033E+03
     -4.203  0.1545E+03  0.6203E+03
     -4.093  0.1137E+03  0.6329E+03
     -3.982  0.8571E+02  0.6424E+03
     -3.872  0.4695E+02  0.6475E+03
     -3.762  0.4134E+01  0.6480E+03
     -3.651  0.3700E-02  0.6480E+03
     -3.541  0.1312E-08  0.6480E+03
     -3.430  0.0000E+00  0.6480E+03
     -3.320  0.0000E+00  0.6480E+03
     -3.209  0.0000E+00  0.6480E+03
     -3.099  0.0000E+00  0.6480E+03
     -2.988  0.0000E+00  0.6480E+03
     -2.878  0.0000E+00  0.6480E+03
     -2.767  0.8398E-08  0.6480E+03
     -2.657  0.2605E-01  0.6480E+03
     -2.546  0.3035E+02  0.6514E+03
     -2.436  0.2746E+03  0.6817E+03
     -2.326  0.2514E+03  0.7095E+03
     -2.215  0.2186E+03  0.7336E+03
     -2.105  0.1687E+03  0.7523E+03
     -1.994  0.1290E+03  0.7665E+03
     -1.884  0.1912E+03  0.7876E+03
     -1.773  0.1967E+03  0.8094E+03
     -1.663  0.1533E+03  0.8263E+03
     -1.552  0.2159E+03  0.8501E+03
     -1.442  0.2937E+03  0.8826E+03
     -1.331  0.2848E+03  0.9140E+03
     -1.221  0.1203E+03  0.9273E+03
     -1.110  0.1196E+03  0.9405E+03
     -1.000  0.2297E+03  0.9659E+03
     -0.890  0.3244E+03  0.1002E+04
     -0.779  0.1688E+03  0.1020E+04
     -0.669  0.1405E+03  0.1036E+04
     -0.558  0.1825E+03  0.1056E+04
     -0.448  0.1759E+03  0.1076E+04
     -0.337  0.1180E+03  0.1089E+04
     -0.227  0.1525E+03  0.1105E+04
     -0.116  0.2059E+03  0.1128E+04
     -0.006  0.1789E+03  0.1148E+04
      0.105  0.1834E+03  0.1168E+04
      0.215  0.1633E+03  0.1186E+04
      0.326  0.1780E+03  0.1206E+04
      0.436  0.2080E+03  0.1229E+04
      0.546  0.1746E+03  0.1248E+04
      0.657  0.1442E+03  0.1264E+04
      0.767  0.2305E+03  0.1290E+04
      0.878  0.5852E+02  0.1296E+04
      0.988  0.2704E+00  0.1296E+04
      1.099  0.1088E-05  0.1296E+04
      1.209  0.4136E-15  0.1296E+04
      1.320  0.0000E+00  0.1296E+04
      1.430  0.0000E+00  0.1296E+04
      1.541  0.0000E+00  0.1296E+04
      1.651  0.0000E+00  0.1296E+04
      1.762  0.0000E+00  0.1296E+04
      1.872  0.0000E+00  0.1296E+04
      1.982  0.0000E+00  0.1296E+04
      2.093  0.0000E+00  0.1296E+04
      2.203  0.0000E+00  0.1296E+04
      2.314  0.0000E+00  0.1296E+04
      2.424  0.0000E+00  0.1296E+04
      2.535  0.0000E+00  0.1296E+04
      2.645  0.0000E+00  0.1296E+04
      2.756  0.0000E+00  0.1296E+04
      2.866  0.0000E+00  0.1296E+04
      2.977  0.0000E+00  0.1296E+04
      3.087  0.0000E+00  0.1296E+04
      3.198  0.0000E+00  0.1296E+04
      3.308  0.0000E+00  0.1296E+04
      3.418  0.0000E+00  0.1296E+04
      3.529  0.0000E+00  0.1296E+04
      3.639  0.0000E+00  0.1296E+04
      3.750  0.0000E+00  0.1296E+04
      3.860  0.0000E+00  0.1296E+04
      3.971  0.0000E+00  0.1296E+04
      4.081  0.0000E+00  0.1296E+04
      4.192  0.0000E+00  0.1296E+04
      4.302  0.0000E+00  0.1296E+04
      4.413  0.0000E+00  0.1296E+04
      4.523  0.0000E+00  0.1296E+04
      4.633  0.0000E+00  0.1296E+04
      4.744  0.0000E+00  0.1296E+04
      4.854  0.0000E+00  0.1296E+04
      4.965  0.0000E+00  0.1296E+04
      5.075  0.0000E+00  0.1296E+04
      5.186  0.0000E+00  0.1296E+04
      5.296  0.0000E+00  0.1296E+04
      5.407  0.0000E+00  0.1296E+04
      5.517  0.0000E+00  0.1296E+04
      5.628  0.0000E+00  0.1296E+04
      5.738  0.0000E+00  0.1296E+04
      5.849  0.0000E+00  0.1296E+04
      5.959  0.0000E+00  0.1296E+04
      6.069  0.0000E+00  0.1296E+04
      6.180  0.0000E+00  0.1296E+04
      6.290  0.0000E+00  0.1296E+04
      6.401  0.0000E+00  0.1296E+04
      6.511  0.1518E-11  0.1296E+04
      6.622  0.2368E-04  0.1296E+04
      6.732  0.1044E+00  0.1296E+04
      6.843  0.1690E+01  0.1296E+04
      6.953  0.3522E+01  0.1297E+04
      7.064  0.4847E+01  0.1297E+04
      7.174  0.6063E+01  0.1298E+04
      7.285  0.7029E+01  0.1299E+04
      7.395  0.8075E+01  0.1299E+04
      7.505  0.9442E+01  0.1301E+04
      7.616  0.1017E+02  0.1302E+04
      7.726  0.1184E+02  0.1303E+04
      7.837  0.1259E+02  0.1304E+04
      7.947  0.1391E+02  0.1306E+04
      8.058  0.1507E+02  0.1308E+04
      8.168  0.1677E+02  0.1309E+04
      8.279  0.1839E+02  0.1311E+04
      8.389  0.1934E+02  0.1314E+04
      8.500  0.2182E+02  0.1316E+04
      8.610  0.2361E+02  0.1319E+04
      8.721  0.2695E+02  0.1322E+04
      8.831  0.2958E+02  0.1325E+04
      8.941  0.3510E+02  0.1329E+04
      9.052  0.3286E+02  0.1332E+04
      9.162  0.3223E+02  0.1336E+04
      9.273  0.3232E+02  0.1339E+04
      9.383  0.3110E+02  0.1343E+04
      9.494  0.3101E+02  0.1346E+04
      9.604  0.3508E+02  0.1350E+04
      9.715  0.4428E+02  0.1355E+04
      9.825  0.7402E+02  0.1363E+04
      9.936  0.1188E+03  0.1376E+04
     10.046  0.1656E+03  0.1395E+04
     10.157  0.1400E+03  0.1410E+04
     10.267  0.1212E+03  0.1424E+04
     10.377  0.1302E+03  0.1438E+04
     10.488  0.1689E+03  0.1457E+04
     10.598  0.2492E+03  0.1484E+04
     10.709  0.2123E+03  0.1508E+04
     10.819  0.1590E+03  0.1525E+04
     10.930  0.1113E+03  0.1537E+04
     11.040  0.1074E+03  0.1549E+04
     11.151  0.1009E+03  0.1560E+04
     11.261  0.5950E+02  0.1567E+04
     11.372  0.9379E+01  0.1568E+04
     11.482  0.2649E-01  0.1568E+04
     11.593  0.6119E-07  0.1568E+04
     11.703  0.0000E+00  0.1568E+04
     11.813  0.0000E+00  0.1568E+04
     11.924  0.0000E+00  0.1568E+04
     12.034  0.0000E+00  0.1568E+04
     12.145  0.0000E+00  0.1568E+04
     12.255  0.0000E+00  0.1568E+04
     12.366  0.0000E+00  0.1568E+04
     12.476  0.0000E+00  0.1568E+04
     12.587  0.0000E+00  0.1568E+04
     12.697  0.0000E+00  0.1568E+04
     12.808  0.0000E+00  0.1568E+04
