  243  243    1    1
  0.1311381E+02  0.1499190E-08  0.1499190E-08  0.1637160E-08  0.5000000E-15
  1.000000000000000E-004
  CAR 
 (Si O2)81  (P1) ~ Ciellie_MCM41 (MD     
   1296     60    784
 
  0.0000000E+00  0.0000000E+00  0.0000000E+00  0.1371742E-02
    1      -18.824439
    2      -18.615614
    3      -18.615612
    4      -18.536828
    5      -18.536820
    6      -18.536770
    7      -18.536652
    8      -18.536600
    9      -18.536593
   10      -18.407093
   11      -18.407092
   12      -18.407049
   13      -18.407047
   14      -18.407014
   15      -18.407012
   16      -18.406923
   17      -18.406921
   18      -18.406888
   19      -18.406886
   20      -18.406840
   21      -18.406839
   22      -18.279489
   23      -18.279487
   24      -18.279486
   25      -18.279484
   26      -18.116349
   27      -18.116347
   28      -18.116314
   29      -18.116312
   30      -18.045032
   31      -18.045031
   32      -17.949325
   33      -17.949324
   34      -17.949273
   35      -17.949273
   36      -17.949202
   37      -17.949200
   38      -17.949190
   39      -17.949189
   40      -17.949120
   41      -17.949120
   42      -17.949067
   43      -17.949066
   44      -17.799748
   45      -17.799748
   46      -17.799745
   47      -17.799745
   48      -17.672607
   49      -17.672603
   50      -17.672590
   51      -17.672332
   52      -17.672329
   53      -17.672318
   54      -17.457539
   55      -17.457538
   56      -17.457536
   57      -17.457535
   58      -17.313547
   59      -17.313542
   60      -17.288646
   61      -17.288601
   62      -17.275988
   63      -17.275877
   64      -17.275852
   65      -17.275761
   66      -17.275742
   67      -17.275633
   68      -17.136332
   69      -17.136331
   70      -17.136331
   71      -17.136330
   72      -17.136274
   73      -17.136272
   74      -17.136269
   75      -17.136267
   76      -17.136212
   77      -17.136212
   78      -17.136211
   79      -17.136210
   80      -16.692158
   81      -16.692155
   82      -16.666311
   83      -16.666308
   84      -16.666308
   85      -16.666305
   86      -16.658513
   87      -16.654970
   88      -16.654970
   89      -16.654956
   90      -16.654955
   91      -16.653509
   92      -16.653507
   93      -16.653461
   94      -16.653460
   95      -16.653381
   96      -16.653378
   97      -16.653320
   98      -16.653317
   99      -16.653236
  100      -16.653235
  101      -16.653175
  102      -16.653173
  103      -16.651897
  104      -16.651892
  105      -16.651890
  106      -16.651830
  107      -16.651826
  108      -16.651823
  109      -16.647260
  110      -16.647256
  111      -16.646835
  112      -16.646833
  113      -16.645732
  114      -16.645730
  115      -16.645707
  116      -16.645705
  117      -16.645693
  118      -16.645691
  119      -16.645658
  120      -16.645655
  121      -16.645635
  122      -16.645631
  123      -16.645583
  124      -16.645579
  125      -16.644830
  126      -16.644825
  127      -16.644789
  128      -16.644695
  129      -16.644651
  130      -16.644640
  131      -16.639535
  132      -16.639533
  133      -16.639491
  134      -16.639488
  135      -16.638869
  136      -16.638869
  137      -16.638865
  138      -16.638865
  139      -16.635629
  140      -16.635516
  141      -16.635488
  142      -16.635399
  143      -16.635374
  144      -16.635253
  145      -16.627610
  146      -16.627610
  147      -16.626810
  148      -16.626809
  149      -16.626716
  150      -16.626715
  151      -16.626700
  152      -16.626698
  153      -16.626597
  154      -16.626595
  155      -16.626583
  156      -16.626583
  157      -16.626473
  158      -16.626473
  159      -16.621863
  160      -16.621860
  161      -16.620447
  162      -16.620393
  163       -8.885780
  164       -8.885777
  165       -8.192271
  166       -8.192271
  167       -8.192242
  168       -8.192240
  169       -8.192205
  170       -8.192202
  171       -8.192179
  172       -8.192176
  173       -8.192139
  174       -8.192139
  175       -8.192110
  176       -8.192109
  177       -8.077989
  178       -8.077988
  179       -7.956823
  180       -7.956821
  181       -7.956798
  182       -7.956748
  183       -7.956729
  184       -7.956718
  185       -7.826444
  186       -7.826416
  187       -7.673559
  188       -7.673558
  189       -7.673557
  190       -7.673556
  191       -7.181718
  192       -7.181717
  193       -7.181705
  194       -7.181703
  195       -7.181698
  196       -7.181694
  197       -6.765240
  198       -6.765240
  199       -6.765237
  200       -6.765237
  201       -6.656569
  202       -6.656569
  203       -6.656563
  204       -6.656561
  205       -6.656523
  206       -6.656522
  207       -6.656480
  208       -6.656480
  209       -6.656439
  210       -6.656438
  211       -6.656438
  212       -6.656438
  213       -6.330849
  214       -6.330849
  215       -6.159306
  216       -6.159302
  217       -6.159272
  218       -6.159268
  219       -6.156278
  220       -6.156275
  221       -6.156275
  222       -6.156272
  223       -5.718677
  224       -5.718676
  225       -5.718669
  226       -5.718668
  227       -5.718626
  228       -5.718625
  229       -5.718625
  230       -5.718624
  231       -5.718592
  232       -5.718591
  233       -5.718586
  234       -5.718584
  235       -5.149678
  236       -5.149677
  237       -5.145488
  238       -5.145487
  239       -5.102142
  240       -5.102141
  241       -5.055116
  242       -5.053414
  243       -5.053413
  244       -5.053410
  245       -5.053393
  246       -5.053392
  247       -5.053390
  248       -5.035673
  249       -5.035645
  250       -5.035603
  251       -5.035576
  252       -5.035566
  253       -5.035496
  254       -4.937720
  255       -4.937719
  256       -4.937690
  257       -4.937689
  258       -4.937685
  259       -4.937684
  260       -4.937641
  261       -4.937640
  262       -4.937639
  263       -4.937638
  264       -4.937601
  265       -4.937599
  266       -4.869823
  267       -4.869799
  268       -4.869789
  269       -4.869754
  270       -4.869751
  271       -4.869737
  272       -4.842331
  273       -4.842329
  274       -4.842306
  275       -4.842304
  276       -4.822923
  277       -4.822923
  278       -4.822923
  279       -4.822923
  280       -4.725679
  281       -4.633074
  282       -4.633068
  283       -4.509567
  284       -4.509567
  285       -4.509558
  286       -4.509558
  287       -4.509523
  288       -4.509522
  289       -4.509520
  290       -4.509519
  291       -4.509481
  292       -4.509481
  293       -4.509469
  294       -4.509469
  295       -4.443736
  296       -4.443733
  297       -4.443731
  298       -4.443729
  299       -4.269723
  300       -4.269722
  301       -4.269722
  302       -4.269721
  303       -4.253434
  304       -4.253433
  305       -4.253399
  306       -4.253399
  307       -4.253393
  308       -4.253391
  309       -4.253388
  310       -4.253387
  311       -4.253383
  312       -4.253381
  313       -4.253343
  314       -4.253342
  315       -4.106084
  316       -4.106064
  317       -4.106054
  318       -4.106041
  319       -4.106032
  320       -4.106022
  321       -4.003769
  322       -4.003766
  323       -3.855228
  324       -3.855226
  325       -2.538066
  326       -2.538064
  327       -2.538063
  328       -2.538061
  329       -2.481726
  330       -2.481725
  331       -2.481708
  332       -2.481708
  333       -2.481648
  334       -2.481648
  335       -2.481643
  336       -2.481643
  337       -2.481583
  338       -2.481583
  339       -2.481566
  340       -2.481566
  341       -2.456133
  342       -2.456117
  343       -2.456116
  344       -2.456040
  345       -2.456036
  346       -2.456023
  347       -2.322546
  348       -2.322545
  349       -2.322425
  350       -2.322424
  351       -2.283482
  352       -2.283482
  353       -2.283468
  354       -2.283467
  355       -2.283423
  356       -2.283423
  357       -2.283365
  358       -2.283365
  359       -2.283326
  360       -2.283325
  361       -2.283311
  362       -2.283311
  363       -2.223853
  364       -2.216315
  365       -2.216315
  366       -2.216313
  367       -2.216313
  368       -2.185522
  369       -2.185501
  370       -2.185488
  371       -2.185412
  372       -2.185385
  373       -2.185364
  374       -2.180930
  375       -2.180930
  376       -2.179856
  377       -2.179843
  378       -2.147994
  379       -2.147994
  380       -2.147992
  381       -2.147991
  382       -2.020177
  383       -2.020175
  384       -2.014379
  385       -2.014377
  386       -1.892961
  387       -1.892959
  388       -1.889356
  389       -1.889291
  390       -1.889265
  391       -1.889264
  392       -1.889245
  393       -1.889176
  394       -1.832814
  395       -1.832812
  396       -1.832783
  397       -1.832781
  398       -1.832759
  399       -1.832758
  400       -1.832725
  401       -1.832723
  402       -1.832680
  403       -1.832678
  404       -1.832621
  405       -1.832619
  406       -1.829796
  407       -1.680078
  408       -1.680049
  409       -1.679905
  410       -1.679880
  411       -1.679836
  412       -1.679779
  413       -1.648132
  414       -1.648131
  415       -1.648107
  416       -1.648107
  417       -1.648085
  418       -1.648084
  419       -1.648080
  420       -1.648079
  421       -1.648051
  422       -1.648050
  423       -1.648036
  424       -1.648036
  425       -1.555952
  426       -1.555951
  427       -1.497232
  428       -1.497232
  429       -1.497174
  430       -1.497173
  431       -1.497171
  432       -1.497170
  433       -1.497161
  434       -1.497161
  435       -1.497160
  436       -1.497160
  437       -1.497108
  438       -1.497107
  439       -1.484670
  440       -1.484669
  441       -1.406577
  442       -1.406576
  443       -1.373015
  444       -1.373013
  445       -1.373007
  446       -1.373004
  447       -1.371084
  448       -1.371047
  449       -1.370971
  450       -1.370965
  451       -1.370939
  452       -1.370886
  453       -1.334393
  454       -1.334392
  455       -1.334392
  456       -1.334392
  457       -1.310549
  458       -1.310548
  459       -1.310513
  460       -1.310513
  461       -1.275164
  462       -1.275164
  463       -1.275163
  464       -1.275163
  465       -1.223636
  466       -1.223623
  467       -1.223591
  468       -1.223574
  469       -1.223521
  470       -1.223510
  471       -1.148845
  472       -1.148845
  473       -1.120755
  474       -1.120754
  475       -1.044597
  476       -1.044592
  477       -1.041192
  478       -1.041190
  479       -0.982331
  480       -0.982323
  481       -0.982320
  482       -0.982320
  483       -0.982102
  484       -0.982096
  485       -0.981507
  486       -0.973789
  487       -0.973400
  488       -0.929855
  489       -0.929854
  490       -0.929829
  491       -0.929828
  492       -0.929776
  493       -0.929774
  494       -0.929741
  495       -0.929740
  496       -0.929718
  497       -0.929717
  498       -0.929645
  499       -0.929644
  500       -0.866976
  501       -0.866975
  502       -0.866950
  503       -0.866949
  504       -0.866916
  505       -0.866915
  506       -0.866881
  507       -0.866881
  508       -0.866863
  509       -0.866862
  510       -0.866840
  511       -0.866839
  512       -0.695506
  513       -0.695500
  514       -0.695303
  515       -0.695297
  516       -0.656493
  517       -0.656491
  518       -0.656432
  519       -0.656432
  520       -0.656419
  521       -0.656418
  522       -0.656342
  523       -0.656342
  524       -0.656342
  525       -0.656341
  526       -0.656286
  527       -0.656285
  528       -0.631114
  529       -0.631114
  530       -0.631110
  531       -0.631110
  532       -0.445150
  533       -0.445112
  534       -0.445042
  535       -0.444995
  536       -0.444987
  537       -0.444872
  538       -0.377971
  539       -0.377971
  540       -0.377969
  541       -0.377968
  542       -0.326659
  543       -0.326657
  544       -0.282540
  545       -0.282522
  546       -0.282331
  547       -0.282313
  548       -0.282304
  549       -0.282282
  550       -0.275794
  551       -0.275794
  552       -0.275785
  553       -0.275784
  554       -0.225901
  555       -0.225671
  556       -0.138899
  557       -0.138899
  558       -0.138885
  559       -0.138885
  560       -0.138878
  561       -0.138878
  562       -0.138856
  563       -0.138856
  564       -0.138787
  565       -0.138785
  566       -0.138765
  567       -0.138764
  568       -0.069768
  569       -0.069735
  570       -0.069716
  571       -0.069650
  572       -0.069645
  573       -0.069606
  574        0.078618
  575        0.078618
  576        0.078622
  577        0.078622
  578        0.127901
  579        0.127904
  580        0.127913
  581        0.127916
  582        0.128041
  583        0.128044
  584        0.128051
  585        0.128054
  586        0.128087
  587        0.128089
  588        0.128109
  589        0.128111
  590        0.143669
  591        0.143669
  592        0.143675
  593        0.143675
  594        0.249876
  595        0.249877
  596        0.249885
  597        0.249885
  598        0.249906
  599        0.249907
  600        0.249911
  601        0.249911
  602        0.249936
  603        0.249936
  604        0.249944
  605        0.249945
  606        0.311210
  607        0.311216
  608        0.311416
  609        0.311420
  610        0.318722
  611        0.318737
  612        0.415517
  613        0.415518
  614        0.415524
  615        0.415526
  616        0.436925
  617        0.436927
  618        0.460110
  619        0.460110
  620        0.460133
  621        0.460133
  622        0.460136
  623        0.460139
  624        0.612898
  625        0.662087
  626        0.662088
  627        0.662118
  628        0.662119
  629        0.662128
  630        0.662129
  631        0.662158
  632        0.662159
  633        0.662193
  634        0.662194
  635        0.662248
  636        0.662250
  637        0.728087
  638        0.728092
  639        0.728148
  640        0.728162
  641        0.728178
  642        0.728254
  643        0.730296
  644        0.730297
  645        0.752552
  646        0.752560
  647        0.796658
  648        0.796658
  649        6.740176
  650        7.687819
  651        7.687821
  652        8.062478
  653        8.062549
  654        8.062572
  655        8.062676
  656        8.062829
  657        8.062846
  658        8.747818
  659        8.747820
  660        8.747890
  661        8.747892
  662        8.747895
  663        8.747897
  664        8.748008
  665        8.748009
  666        8.748146
  667        8.748148
  668        8.748151
  669        8.748153
  670        9.465055
  671        9.465055
  672        9.551317
  673        9.551320
  674        9.552034
  675        9.552035
  676        9.552755
  677        9.552787
  678        9.873516
  679        9.873516
  680        9.873537
  681        9.873537
  682        9.906609
  683        9.906652
  684        9.906772
  685        9.906829
  686        9.906868
  687        9.906942
  688        9.940639
  689        9.940641
  690        9.940646
  691        9.940647
  692       10.006409
  693       10.006873
  694       10.131455
  695       10.131456
  696       10.131470
  697       10.131470
  698       10.131580
  699       10.131581
  700       10.131581
  701       10.131581
  702       10.131685
  703       10.131686
  704       10.131714
  705       10.131715
  706       10.202429
  707       10.202435
  708       10.302012
  709       10.302575
  710       10.343254
  711       10.343255
  712       10.343275
  713       10.343276
  714       10.343374
  715       10.343375
  716       10.343416
  717       10.343417
  718       10.343534
  719       10.343535
  720       10.343541
  721       10.343542
  722       10.389610
  723       10.389611
  724       10.489660
  725       10.489688
  726       10.489707
  727       10.489746
  728       10.489805
  729       10.489875
  730       10.507942
  731       10.507957
  732       10.542340
  733       10.542346
  734       10.542400
  735       10.542423
  736       10.542664
  737       10.542675
  738       10.542718
  739       10.542722
  740       10.542840
  741       10.542854
  742       10.542939
  743       10.542951
  744       10.570481
  745       10.570496
  746       10.570501
  747       10.570520
  748       10.570536
  749       10.570638
  750       10.623443
  751       10.623447
  752       10.623460
  753       10.623483
  754       10.772603
  755       10.772623
  756       10.772664
  757       10.772699
  758       10.772733
  759       10.772740
  760       10.772763
  761       10.772797
  762       10.772836
  763       10.772872
  764       10.773158
  765       10.774337
  766       10.825788
  767       10.825848
  768       10.826335
  769       10.827817
  770       10.890516
  771       10.890676
  772       10.890905
  773       10.891122
  774       10.891735
  775       10.895821
  776       11.000402
  777       11.003302
  778       11.016571
  779       11.024441
  780       11.064657
  781       11.066423
  782       11.069785
  783       11.077977
  784       11.121365
 
  0.1111111E+00 -0.1724215E-17  0.2045711E-24  0.8230453E-02
    1      -18.820019
    2      -18.612491
    3      -18.612489
    4      -18.591056
    5      -18.561483
    6      -18.561474
    7      -18.506192
    8      -18.506179
    9      -18.481444
   10      -18.440621
   11      -18.440618
   12      -18.422024
   13      -18.422024
   14      -18.422009
   15      -18.422006
   16      -18.389878
   17      -18.389878
   18      -18.389856
   19      -18.389852
   20      -18.376624
   21      -18.376621
   22      -18.281510
   23      -18.281507
   24      -18.281502
   25      -18.281499
   26      -18.173948
   27      -18.173919
   28      -18.059601
   29      -18.059570
   30      -18.044117
   31      -18.044116
   32      -17.969582
   33      -17.969581
   34      -17.958804
   35      -17.958803
   36      -17.958786
   37      -17.958784
   38      -17.937436
   39      -17.937434
   40      -17.937410
   41      -17.937407
   42      -17.927218
   43      -17.927216
   44      -17.805270
   45      -17.805269
   46      -17.805260
   47      -17.805259
   48      -17.740525
   49      -17.709432
   50      -17.709416
   51      -17.640820
   52      -17.640813
   53      -17.603988
   54      -17.448495
   55      -17.448494
   56      -17.448489
   57      -17.448488
   58      -17.312790
   59      -17.312783
   60      -17.294251
   61      -17.288351
   62      -17.277685
   63      -17.277651
   64      -17.277373
   65      -17.276257
   66      -17.276223
   67      -17.274815
   68      -17.202151
   69      -17.202149
   70      -17.173286
   71      -17.173283
   72      -17.173247
   73      -17.173245
   74      -17.105533
   75      -17.105531
   76      -17.105500
   77      -17.105497
   78      -17.067128
   79      -17.067126
   80      -16.702747
   81      -16.702745
   82      -16.665613
   83      -16.665610
   84      -16.665606
   85      -16.665604
   86      -16.658431
   87      -16.656597
   88      -16.656595
   89      -16.655477
   90      -16.655475
   91      -16.655444
   92      -16.655440
   93      -16.654880
   94      -16.654879
   95      -16.654866
   96      -16.654865
   97      -16.652825
   98      -16.652494
   99      -16.652485
  100      -16.652328
  101      -16.652326
  102      -16.652296
  103      -16.652293
  104      -16.651703
  105      -16.651540
  106      -16.651526
  107      -16.650018
  108      -16.650015
  109      -16.648089
  110      -16.648080
  111      -16.647628
  112      -16.647624
  113      -16.647471
  114      -16.647095
  115      -16.647094
  116      -16.647022
  117      -16.647018
  118      -16.645995
  119      -16.645931
  120      -16.644922
  121      -16.644921
  122      -16.644852
  123      -16.644848
  124      -16.644392
  125      -16.644390
  126      -16.643651
  127      -16.643592
  128      -16.643498
  129      -16.643493
  130      -16.641997
  131      -16.640451
  132      -16.640421
  133      -16.639267
  134      -16.639232
  135      -16.638269
  136      -16.638268
  137      -16.638263
  138      -16.638262
  139      -16.637385
  140      -16.636202
  141      -16.636166
  142      -16.634076
  143      -16.634039
  144      -16.633268
  145      -16.628687
  146      -16.628685
  147      -16.627909
  148      -16.627908
  149      -16.627892
  150      -16.627891
  151      -16.627520
  152      -16.627520
  153      -16.626044
  154      -16.626042
  155      -16.626029
  156      -16.626027
  157      -16.624875
  158      -16.624872
  159      -16.622959
  160      -16.622956
  161      -16.620863
  162      -16.620809
  163       -8.875211
  164       -8.875208
  165       -8.309861
  166       -8.309858
  167       -8.245170
  168       -8.245168
  169       -8.245162
  170       -8.245159
  171       -8.129435
  172       -8.129433
  173       -8.129422
  174       -8.129419
  175       -8.079384
  176       -8.079380
  177       -8.075368
  178       -8.075367
  179       -7.971996
  180       -7.967490
  181       -7.967481
  182       -7.950784
  183       -7.950777
  184       -7.939108
  185       -7.828796
  186       -7.816346
  187       -7.684839
  188       -7.684838
  189       -7.684833
  190       -7.684830
  191       -7.287833
  192       -7.225480
  193       -7.225465
  194       -7.121303
  195       -7.121285
  196       -7.082780
  197       -6.766856
  198       -6.766855
  199       -6.766849
  200       -6.766848
  201       -6.716254
  202       -6.716252
  203       -6.686250
  204       -6.686249
  205       -6.686246
  206       -6.686244
  207       -6.627654
  208       -6.627653
  209       -6.627652
  210       -6.627651
  211       -6.598407
  212       -6.598405
  213       -6.336367
  214       -6.336367
  215       -6.306739
  216       -6.306712
  217       -6.141885
  218       -6.141882
  219       -6.141880
  220       -6.141877
  221       -6.012239
  222       -6.012206
  223       -5.763105
  224       -5.763103
  225       -5.749607
  226       -5.749606
  227       -5.749565
  228       -5.749563
  229       -5.700552
  230       -5.700551
  231       -5.700513
  232       -5.700511
  233       -5.666342
  234       -5.666341
  235       -5.199169
  236       -5.199168
  237       -5.145269
  238       -5.145267
  239       -5.131769
  240       -5.131718
  241       -5.121952
  242       -5.080757
  243       -5.080745
  244       -5.053333
  245       -5.048563
  246       -5.048562
  247       -5.039220
  248       -5.032537
  249       -5.000843
  250       -5.000810
  251       -4.981904
  252       -4.976977
  253       -4.976914
  254       -4.961761
  255       -4.961759
  256       -4.946251
  257       -4.946250
  258       -4.946213
  259       -4.946211
  260       -4.924413
  261       -4.924413
  262       -4.924374
  263       -4.924372
  264       -4.917893
  265       -4.917891
  266       -4.870974
  267       -4.870133
  268       -4.870092
  269       -4.868814
  270       -4.868775
  271       -4.867388
  272       -4.847539
  273       -4.847519
  274       -4.840651
  275       -4.840632
  276       -4.824425
  277       -4.824425
  278       -4.824421
  279       -4.824421
  280       -4.741705
  281       -4.639504
  282       -4.611670
  283       -4.563663
  284       -4.563662
  285       -4.533878
  286       -4.533877
  287       -4.533870
  288       -4.533868
  289       -4.485052
  290       -4.485051
  291       -4.485044
  292       -4.485043
  293       -4.465288
  294       -4.465287
  295       -4.442441
  296       -4.442438
  297       -4.442435
  298       -4.442432
  299       -4.284127
  300       -4.284124
  301       -4.271729
  302       -4.271729
  303       -4.271728
  304       -4.271727
  305       -4.270697
  306       -4.270694
  307       -4.270684
  308       -4.270682
  309       -4.237630
  310       -4.237627
  311       -4.237619
  312       -4.237617
  313       -4.217689
  314       -4.217686
  315       -4.171140
  316       -4.134849
  317       -4.134821
  318       -4.073505
  319       -4.073473
  320       -4.049320
  321       -4.008243
  322       -4.008240
  323       -3.860518
  324       -3.860511
  325       -2.536188
  326       -2.536186
  327       -2.536185
  328       -2.536183
  329       -2.497473
  330       -2.497472
  331       -2.491157
  332       -2.491156
  333       -2.491154
  334       -2.491153
  335       -2.471584
  336       -2.471583
  337       -2.471578
  338       -2.471577
  339       -2.457646
  340       -2.457645
  341       -2.455570
  342       -2.455205
  343       -2.455194
  344       -2.452036
  345       -2.452029
  346       -2.447928
  347       -2.340307
  348       -2.340306
  349       -2.339065
  350       -2.338967
  351       -2.311729
  352       -2.311728
  353       -2.311696
  354       -2.311695
  355       -2.308278
  356       -2.308173
  357       -2.253190
  358       -2.253190
  359       -2.253171
  360       -2.253171
  361       -2.240119
  362       -2.240117
  363       -2.240050
  364       -2.240048
  365       -2.221750
  366       -2.221750
  367       -2.221301
  368       -2.209325
  369       -2.197915
  370       -2.197903
  371       -2.195547
  372       -2.190292
  373       -2.190291
  374       -2.181382
  375       -2.181341
  376       -2.176644
  377       -2.173533
  378       -2.120975
  379       -2.120973
  380       -2.120893
  381       -2.120890
  382       -2.016967
  383       -2.016947
  384       -2.016025
  385       -2.016023
  386       -1.945777
  387       -1.911309
  388       -1.911287
  389       -1.892420
  390       -1.892417
  391       -1.856357
  392       -1.856312
  393       -1.843040
  394       -1.843037
  395       -1.842916
  396       -1.842914
  397       -1.839416
  398       -1.839414
  399       -1.834878
  400       -1.834875
  401       -1.834774
  402       -1.834772
  403       -1.830788
  404       -1.826616
  405       -1.826614
  406       -1.811234
  407       -1.751091
  408       -1.719613
  409       -1.719419
  410       -1.680009
  411       -1.680007
  412       -1.666111
  413       -1.666109
  414       -1.666068
  415       -1.666067
  416       -1.642919
  417       -1.642738
  418       -1.631842
  419       -1.631842
  420       -1.631825
  421       -1.631823
  422       -1.617574
  423       -1.617574
  424       -1.594560
  425       -1.550126
  426       -1.550124
  427       -1.500714
  428       -1.500713
  429       -1.492394
  430       -1.492393
  431       -1.492372
  432       -1.492370
  433       -1.490915
  434       -1.490914
  435       -1.488121
  436       -1.488120
  437       -1.488084
  438       -1.488083
  439       -1.481565
  440       -1.481562
  441       -1.431531
  442       -1.431530
  443       -1.402378
  444       -1.390676
  445       -1.390618
  446       -1.388948
  447       -1.388946
  448       -1.388834
  449       -1.388831
  450       -1.362538
  451       -1.362452
  452       -1.347647
  453       -1.347645
  454       -1.347560
  455       -1.347559
  456       -1.345623
  457       -1.343397
  458       -1.343360
  459       -1.309654
  460       -1.309652
  461       -1.272573
  462       -1.246017
  463       -1.245947
  464       -1.244947
  465       -1.244945
  466       -1.244901
  467       -1.244898
  468       -1.199323
  469       -1.199271
  470       -1.176540
  471       -1.135902
  472       -1.135902
  473       -1.116427
  474       -1.116426
  475       -1.033411
  476       -1.033409
  477       -1.009798
  478       -1.009738
  479       -0.985419
  480       -0.985390
  481       -0.984814
  482       -0.980891
  483       -0.980699
  484       -0.976955
  485       -0.976078
  486       -0.975835
  487       -0.972796
  488       -0.962407
  489       -0.962406
  490       -0.946829
  491       -0.946827
  492       -0.946687
  493       -0.946686
  494       -0.929899
  495       -0.929898
  496       -0.929876
  497       -0.929874
  498       -0.923689
  499       -0.923689
  500       -0.883613
  501       -0.883612
  502       -0.880819
  503       -0.880817
  504       -0.880673
  505       -0.880672
  506       -0.849707
  507       -0.849706
  508       -0.849643
  509       -0.849642
  510       -0.824602
  511       -0.824600
  512       -0.745317
  513       -0.745113
  514       -0.719685
  515       -0.719683
  516       -0.679472
  517       -0.679470
  518       -0.679428
  519       -0.679426
  520       -0.643927
  521       -0.643779
  522       -0.636169
  523       -0.636168
  524       -0.636143
  525       -0.636142
  526       -0.619539
  527       -0.619537
  528       -0.619439
  529       -0.619438
  530       -0.598549
  531       -0.598548
  532       -0.468715
  533       -0.468616
  534       -0.456149
  535       -0.456048
  536       -0.453597
  537       -0.431069
  538       -0.389166
  539       -0.389165
  540       -0.389150
  541       -0.389149
  542       -0.320422
  543       -0.320420
  544       -0.294951
  545       -0.272936
  546       -0.272776
  547       -0.266984
  548       -0.260328
  549       -0.260328
  550       -0.260312
  551       -0.260311
  552       -0.259283
  553       -0.259076
  554       -0.233324
  555       -0.229805
  556       -0.177568
  557       -0.177567
  558       -0.171677
  559       -0.153623
  560       -0.153622
  561       -0.153506
  562       -0.153505
  563       -0.129499
  564       -0.129497
  565       -0.129414