<?xml version="1.0" encoding="ISO-8859-1"?>
<modeling>
 <generator>
  <i name="program" type="string">vasp </i>
  <i name="version" type="string">5.3.5  </i>
  <i name="subversion" type="string">31Mar14 (build Oct 18 2016 11:10:54) complex                          parallel </i>
  <i name="platform" type="string">LinuxIFC </i>
  <i name="date" type="string">2017 10 09 </i>
  <i name="time" type="string">14:56:01 </i>
 </generator>
 <incar>
  <i type="string" name="SYSTEM"> (Si O2)81  (P1) ~ Ciellie_MCM41 (MD</i>
  <i type="string" name="PREC">accurate</i>
  <i type="string" name="ALGO"> Normal (blocked Davidson)</i>
  <i type="int" name="ICHARG">     2</i>
  <i type="int" name="NELMIN">     2</i>
  <i type="int" name="IBRION">    -1</i>
  <i name="EDIFF">      0.00001000</i>
  <i type="int" name="ISIF">     2</i>
  <i name="ENCUT">    400.00000000</i>
  <i type="int" name="NGXF">    98</i>
  <i type="int" name="NGYF">    98</i>
  <i type="int" name="NGZF">   108</i>
  <i type="string" name="LREAL"> Auto</i>
  <i type="int" name="ISMEAR">     0</i>
  <i name="SIGMA">      0.05000000</i>
  <i type="logical" name="LWAVE"> F  </i>
  <i type="logical" name="LCHARG"> F  </i>
 </incar>
 <kpoints>
  <generation param="Gamma">
   <v type="int" name="divisions">       9        9        9 </v>
   <v name="usershift">      0.00000000       0.00000000       0.00000000 </v>
   <v name="genvec1">      0.11111111      -0.00000000       0.00000000 </v>
   <v name="genvec2">      0.00000000       0.11111111       0.00000000 </v>
   <v name="genvec3">      0.00000000       0.00000000       0.11111111 </v>
   <v name="shift">      0.00000000       0.00000000       0.00000000 </v>
  </generation>
  <varray name="kpointlist" >
   <v>       0.00000000       0.00000000       0.00000000 </v>
   <v>       0.11111111      -0.00000000       0.00000000 </v>
   <v>       0.22222222      -0.00000000      -0.00000000 </v>
   <v>       0.33333333       0.00000000      -0.00000000 </v>
   <v>       0.44444444      -0.00000000      -0.00000000 </v>
   <v>       0.11111111       0.11111111       0.00000000 </v>
   <v>       0.22222222       0.11111111       0.00000000 </v>
   <v>       0.33333333       0.11111111      -0.00000000 </v>
   <v>       0.44444444       0.11111111       0.00000000 </v>
   <v>       0.22222222       0.22222222      -0.00000000 </v>
   <v>       0.33333333       0.22222222      -0.00000000 </v>
   <v>       0.33333333       0.33333333       0.00000000 </v>
   <v>       0.00000000       0.00000000       0.11111111 </v>
   <v>       0.11111111      -0.00000000       0.11111111 </v>
   <v>       0.22222222      -0.00000000       0.11111111 </v>
   <v>       0.33333333       0.00000000       0.11111111 </v>
   <v>       0.44444444      -0.00000000       0.11111111 </v>
   <v>       0.11111111       0.11111111       0.11111111 </v>
   <v>       0.22222222       0.11111111       0.11111111 </v>
   <v>       0.33333333       0.11111111       0.11111111 </v>
   <v>       0.44444444       0.11111111       0.11111111 </v>
   <v>       0.22222222       0.22222222       0.11111111 </v>
   <v>       0.33333333       0.22222222       0.11111111 </v>
   <v>       0.33333333       0.33333333       0.11111111 </v>
   <v>       0.00000000       0.00000000       0.22222222 </v>
   <v>       0.11111111      -0.00000000       0.22222222 </v>
   <v>       0.22222222      -0.00000000       0.22222222 </v>
   <v>       0.33333333       0.00000000       0.22222222 </v>
   <v>       0.44444444      -0.00000000       0.22222222 </v>
   <v>       0.11111111       0.11111111       0.22222222 </v>
   <v>       0.22222222       0.11111111       0.22222222 </v>
   <v>       0.33333333       0.11111111       0.22222222 </v>
   <v>       0.44444444       0.11111111       0.22222222 </v>
   <v>       0.22222222       0.22222222       0.22222222 </v>
   <v>       0.33333333       0.22222222       0.22222222 </v>
   <v>       0.33333333       0.33333333       0.22222222 </v>
   <v>       0.00000000       0.00000000       0.33333333 </v>
   <v>       0.11111111      -0.00000000       0.33333333 </v>
   <v>       0.22222222      -0.00000000       0.33333333 </v>
   <v>       0.33333333       0.00000000       0.33333333 </v>
   <v>       0.44444444      -0.00000000       0.33333333 </v>
   <v>       0.11111111       0.11111111       0.33333333 </v>
   <v>       0.22222222       0.11111111       0.33333333 </v>
   <v>       0.33333333       0.11111111       0.33333333 </v>
   <v>       0.44444444       0.11111111       0.33333333 </v>
   <v>       0.22222222       0.22222222       0.33333333 </v>
   <v>       0.33333333       0.22222222       0.33333333 </v>
   <v>       0.33333333       0.33333333       0.33333333 </v>
   <v>       0.00000000       0.00000000       0.44444444 </v>
   <v>       0.11111111      -0.00000000       0.44444444 </v>
   <v>       0.22222222      -0.00000000       0.44444444 </v>
   <v>       0.33333333       0.00000000       0.44444444 </v>
   <v>       0.44444444      -0.00000000       0.44444444 </v>
   <v>       0.11111111       0.11111111       0.44444444 </v>
   <v>       0.22222222       0.11111111       0.44444444 </v>
   <v>       0.33333333       0.11111111       0.44444444 </v>
   <v>       0.44444444       0.11111111       0.44444444 </v>
   <v>       0.22222222       0.22222222       0.44444444 </v>
   <v>       0.33333333       0.22222222       0.44444444 </v>
   <v>       0.33333333       0.33333333       0.44444444 </v>
  </varray>
  <varray name="weights" >
   <v>       0.00137174 </v>
   <v>       0.00823045 </v>
   <v>       0.00823045 </v>
   <v>       0.00823045 </v>
   <v>       0.00823045 </v>
   <v>       0.00823045 </v>
   <v>       0.01646091 </v>
   <v>       0.01646091 </v>
   <v>       0.00823045 </v>
   <v>       0.00823045 </v>
   <v>       0.01646091 </v>
   <v>       0.00274348 </v>
   <v>       0.00274348 </v>
   <v>       0.01646091 </v>
   <v>       0.01646091 </v>
   <v>       0.01646091 </v>
   <v>       0.01646091 </v>
   <v>       0.01646091 </v>
   <v>       0.03292181 </v>
   <v>       0.03292181 </v>
   <v>       0.01646091 </v>
   <v>       0.01646091 </v>
   <v>       0.03292181 </v>
   <v>       0.00548697 </v>
   <v>       0.00274348 </v>
   <v>       0.01646091 </v>
   <v>       0.01646091 </v>
   <v>       0.01646091 </v>
   <v>       0.01646091 </v>
   <v>       0.01646091 </v>
   <v>       0.03292181 </v>
   <v>       0.03292181 </v>
   <v>       0.01646091 </v>
   <v>       0.01646091 </v>
   <v>       0.03292181 </v>
   <v>       0.00548697 </v>
   <v>       0.00274348 </v>
   <v>       0.01646091 </v>
   <v>       0.01646091 </v>
   <v>       0.01646091 </v>
   <v>       0.01646091 </v>
   <v>       0.01646091 </v>
   <v>       0.03292181 </v>
   <v>       0.03292181 </v>
   <v>       0.01646091 </v>
   <v>       0.01646091 </v>
   <v>       0.03292181 </v>
   <v>       0.00548697 </v>
   <v>       0.00274348 </v>
   <v>       0.01646091 </v>
   <v>       0.01646091 </v>
   <v>       0.01646091 </v>
   <v>       0.01646091 </v>
   <v>       0.01646091 </v>
   <v>       0.03292181 </v>
   <v>       0.03292181 </v>
   <v>       0.01646091 </v>
   <v>       0.01646091 </v>
   <v>       0.03292181 </v>
   <v>       0.00548697 </v>
  </varray>
 </kpoints>
 <parameters>
  <separator name="general" >
   <i type="string" name="SYSTEM">(Si O2)81  (P1) ~ Ciellie_MCM41 (MD</i>
   <i type="logical" name="LCOMPAT"> F  </i>
  </separator>
  <separator name="electronic" >
   <i type="string" name="PREC">accura</i>
   <i name="ENMAX">    400.00000000</i>
   <i name="ENAUG">    605.39200000</i>
   <i name="EDIFF">      0.00001000</i>
   <i type="int" name="IALGO">    38</i>
   <i type="int" name="IWAVPR">    10</i>
   <i type="int" name="NBANDS">   784</i>
   <i name="NELECT">   1296.00000000</i>
   <i type="int" name="TURBO">     0</i>
   <i type="int" name="IRESTART">     0</i>
   <i type="int" name="NREBOOT">     0</i>
   <i type="int" name="NMIN">     0</i>
   <i name="EREF">      0.00000000</i>
   <separator name="electronic smearing" >
    <i type="int" name="ISMEAR">     0</i>
    <i name="SIGMA">      0.05000000</i>
    <i name="KSPACING">      0.50000000</i>
    <i type="logical" name="KGAMMA"> T  </i>
   </separator>
   <separator name="electronic projectors" >
    <i type="logical" name="LREAL"> T  </i>
    <v name="ROPT">     -0.00025000     -0.00025000</v>
    <i type="int" name="LMAXPAW">  -100</i>
    <i type="int" name="LMAXMIX">     2</i>
    <i type="logical" name="NLSPLINE"> F  </i>
   </separator>
   <separator name="electronic startup" >
    <i type="int" name="ISTART">     0</i>
    <i type="int" name="ICHARG">     2</i>
    <i type="int" name="INIWAV">     1</i>
   </separator>
   <separator name="electronic spin" >
    <i type="int" name="ISPIN">     1</i>
    <i type="logical" name="LNONCOLLINEAR"> F  </i>
    <v name="MAGMOM">      1.00000000      1.00000000      1.00000000      1.00000000      1.00000000      1.00000000      1.00000000      1.00000000      1.00000000      1.00000000      1.00000000      1.00000000      1.00000000      1.00000000      1.00000000      1.00000000      1.00000000      1.00000000      1.00000000      1.00000000
      1.00000000      1.00000000      1.00000000      1.00000000      1.00000000      1.00000000      1.00000000      1.00000000      1.00000000      1.00000000      1.00000000      1.00000000      1.00000000      1.00000000      1.00000000      1.00000000      1.00000000      1.00000000      1.00000000      1.00000000
      1.00000000      1.00000000      1.00000000      1.00000000      1.00000000      1.00000000      1.00000000      1.00000000      1.00000000      1.00000000      1.00000000      1.00000000      1.00000000      1.00000000      1.00000000      1.00000000      1.00000000      1.00000000      1.00000000      1.00000000
      1.00000000      1.00000000      1.00000000      1.00000000      1.00000000      1.00000000      1.00000000      1.00000000      1.00000000      1.00000000      1.00000000      1.00000000      1.00000000      1.00000000      1.00000000      1.00000000      1.00000000      1.00000000      1.00000000      1.00000000
      1.00000000      1.00000000      1.00000000      1.00000000      1.00000000      1.00000000      1.00000000      1.00000000      1.00000000      1.00000000      1.00000000      1.00000000      1.00000000      1.00000000      1.00000000      1.00000000      1.00000000      1.00000000      1.00000000      1.00000000
      1.00000000      1.00000000      1.00000000      1.00000000      1.00000000      1.00000000      1.00000000      1.00000000      1.00000000      1.00000000      1.00000000      1.00000000      1.00000000      1.00000000      1.00000000      1.00000000      1.00000000      1.00000000      1.00000000      1.00000000
      1.00000000      1.00000000      1.00000000      1.00000000      1.00000000      1.00000000      1.00000000      1.00000000      1.00000000      1.00000000      1.00000000      1.00000000      1.00000000      1.00000000      1.00000000      1.00000000      1.00000000      1.00000000      1.00000000      1.00000000
      1.00000000      1.00000000      1.00000000      1.00000000      1.00000000      1.00000000      1.00000000      1.00000000      1.00000000      1.00000000      1.00000000      1.00000000      1.00000000      1.00000000      1.00000000      1.00000000      1.00000000      1.00000000      1.00000000      1.00000000
      1.00000000      1.00000000      1.00000000      1.00000000      1.00000000      1.00000000      1.00000000      1.00000000      1.00000000      1.00000000      1.00000000      1.00000000      1.00000000      1.00000000      1.00000000      1.00000000      1.00000000      1.00000000      1.00000000      1.00000000
      1.00000000      1.00000000      1.00000000      1.00000000      1.00000000      1.00000000      1.00000000      1.00000000      1.00000000      1.00000000      1.00000000      1.00000000      1.00000000      1.00000000      1.00000000      1.00000000      1.00000000      1.00000000      1.00000000      1.00000000
      1.00000000      1.00000000      1.00000000      1.00000000      1.00000000      1.00000000      1.00000000      1.00000000      1.00000000      1.00000000      1.00000000      1.00000000      1.00000000      1.00000000      1.00000000      1.00000000      1.00000000      1.00000000      1.00000000      1.00000000
      1.00000000      1.00000000      1.00000000      1.00000000      1.00000000      1.00000000      1.00000000      1.00000000      1.00000000      1.00000000      1.00000000      1.00000000      1.00000000      1.00000000      1.00000000      1.00000000      1.00000000      1.00000000      1.00000000      1.00000000
      1.00000000      1.00000000      1.00000000</v>
    <i name="NUPDOWN">     -1.00000000</i>
    <i type="logical" name="LSORBIT"> F  </i>
    <v name="SAXIS">      0.00000000      0.00000000      1.00000000</v>
    <i type="logical" name="LSPIRAL"> F  </i>
    <v name="QSPIRAL">      0.00000000      0.00000000      0.00000000</v>
    <i type="logical" name="LZEROZ"> F  </i>
   </separator>
   <separator name="electronic exchange-correlation" >
    <i type="logical" name="LASPH"> F  </i>
    <i type="logical" name="LMETAGGA"> F  </i>
   </separator>
   <separator name="electronic convergence" >
    <i type="int" name="NELM">    60</i>
    <i type="int" name="NELMDL">    -5</i>
    <i type="int" name="NELMIN">     2</i>
    <i name="ENINI">    400.00000000</i>
    <separator name="electronic convergence detail" >
     <i type="logical" name="LDIAG"> T  </i>
     <i type="logical" name="LSUBROT"> F  </i>
     <i name="WEIMIN">      0.00000000</i>
     <i name="EBREAK">      0.00000000</i>
     <i name="DEPER">      0.30000000</i>
     <i type="int" name="NRMM">     4</i>
     <i name="TIME">      0.40000000</i>
    </separator>
   </separator>
   <separator name="electronic mixer" >
    <i name="AMIX">      0.40000000</i>
    <i name="BMIX">      1.00000000</i>
    <i name="AMIN">      0.10000000</i>
    <i name="AMIX_MAG">      1.60000000</i>
    <i name="BMIX_MAG">      1.00000000</i>
    <separator name="electronic mixer details" >
     <i type="int" name="IMIX">     4</i>
     <i type="int" name="MAXMIX">   -45</i>
     <i name="WC">    100.00000000</i>
     <i type="int" name="INIMIX">     1</i>
     <i type="int" name="MIXPRE">     1</i>
     <i type="int" name="MREMOVE">     5</i>
    </separator>
   </separator>
   <separator name="electronic dipolcorrection" >
    <i type="logical" name="LDIPOL"> F  </i>
    <i type="logical" name="LMONO"> F  </i>
    <i type="int" name="IDIPOL">     0</i>
    <i name="EPSILON">      1.00000000</i>
    <v name="DIPOL">   -100.00000000   -100.00000000   -100.00000000</v>
    <i name="EFIELD">      0.00000000</i>
   </separator>
  </separator>
  <separator name="grids" >
   <i type="int" name="NGX">    98</i>
   <i type="int" name="NGY">    98</i>
   <i type="int" name="NGZ">   108</i>
   <i type="int" name="NGXF">    98</i>
   <i type="int" name="NGYF">    98</i>
   <i type="int" name="NGZF">   108</i>
   <i type="logical" name="ADDGRID"> F  </i>
  </separator>
  <separator name="ionic" >
   <i type="int" name="NSW">     0</i>
   <i type="int" name="IBRION">    -1</i>
   <i type="int" name="ISIF">     2</i>
   <i name="PSTRESS">      0.00000000</i>
   <i name="EDIFFG">      0.00010000</i>
   <i type="int" name="NFREE">     0</i>
   <i name="POTIM">      0.50000000</i>
   <i name="SMASS">     -3.00000000</i>
   <i name="SCALEE">      1.00000000</i>
  </separator>
  <separator name="ionic md" >
   <i name="TEBEG">      0.00010000</i>
   <i name="TEEND">      0.00010000</i>
   <i type="int" name="NBLOCK">     1</i>
   <i type="int" name="KBLOCK">     1</i>
   <i type="int" name="NPACO">   256</i>
   <i name="APACO">     16.00000000</i>
  </separator>
  <separator name="symmetry" >
   <i type="int" name="ISYM">     2</i>
   <i name="SYMPREC">      0.00001000</i>
  </separator>
  <separator name="dos" >
   <i type="logical" name="LORBIT"> F  </i>
   <v name="RWIGS">     -1.00000000     -1.00000000</v>
   <i type="int" name="NEDOS">   301</i>
   <i name="EMIN">     10.00000000</i>
   <i name="EMAX">    -10.00000000</i>
   <i name="EFERMI">      0.00000000</i>
  </separator>
  <separator name="writing" >
   <i type="int" name="NWRITE">     2</i>
   <i type="logical" name="LWAVE"> F  </i>
   <i type="logical" name="LCHARG"> F  </i>
   <i type="logical" name="LPARD"> F  </i>
   <i type="logical" name="LVTOT"> F  </i>
   <i type="logical" name="LVHAR"> F  </i>
   <i type="logical" name="LELF"> F  </i>
   <i type="logical" name="LOPTICS"> F  </i>
   <v name="STM">      0.00000000      0.00000000      0.00000000      0.00000000      0.00000000      0.00000000      0.00000000</v>
  </separator>
  <separator name="performance" >
   <i type="int" name="NPAR">     8</i>
   <i type="int" name="NSIM">     4</i>
   <i type="int" name="NBLK">    -1</i>
   <i type="logical" name="LPLANE"> T  </i>
   <i type="logical" name="LSCALAPACK"> T  </i>
   <i type="logical" name="LSCAAWARE"> T  </i>
   <i type="logical" name="LSCALU"> F  </i>
   <i type="logical" name="LASYNC"> F  </i>
   <i type="logical" name="LORBITALREAL"> F  </i>
  </separator>
  <separator name="miscellaneous" >
   <i type="int" name="IDIOT">     3</i>
   <i type="logical" name="LMUSIC"> F  </i>
   <v name="POMASS">     16.00000000     28.08500000</v>
   <v name="DARWINR">      0.00000000      0.00000000</v>
   <v name="DARWINV">      1.00000000      1.00000000</v>
   <i type="logical" name="LCORR"> T  </i>
  </separator>
  <i type="logical" name="GGA_COMPAT"> T  </i>
  <i type="logical" name="LBERRY"> F  </i>
  <i type="int" name="ICORELEVEL">     0</i>
  <i type="logical" name="LDAU"> F  </i>
  <i type="int" name="I_CONSTRAINED_M">     0</i>
  <separator name="electronic exchange-correlation" >
   <i type="string" name="GGA">--</i>
   <i type="int" name="VOSKOWN">     0</i>
   <i type="logical" name="LHFCALC"> F  </i>
   <i type="string" name="PRECFOCK"></i>
   <i type="logical" name="LSYMGRAD"> F  </i>
   <i type="logical" name="LHFONE"> F  </i>
   <i type="logical" name="LRHFCALC"> F  </i>
   <i type="logical" name="LTHOMAS"> F  </i>
   <i type="logical" name="LMODELHF"> F  </i>
   <i name="ENCUT4O">     -1.00000000</i>
   <i type="int" name="EXXOEP">     0</i>
   <i type="int" name="FOURORBIT">     0</i>
   <i name="AEXX">      0.00000000</i>
   <i name="HFALPHA">      0.00000000</i>
   <i name="MCALPHA">      0.00000000</i>
   <i name="ALDAX">      1.00000000</i>
   <i name="AGGAX">      1.00000000</i>
   <i name="ALDAC">      1.00000000</i>
   <i name="AGGAC">      1.00000000</i>
   <i type="int" name="NKREDX">     1</i>
   <i type="int" name="NKREDY">     1</i>
   <i type="int" name="NKREDZ">     1</i>
   <i type="logical" name="SHIFTRED"> F  </i>
   <i type="logical" name="ODDONLY"> F  </i>
   <i type="logical" name="EVENONLY"> F  </i>
   <i type="int" name="LMAXFOCK">     0</i>
   <i type="int" name="NMAXFOCKAE">     0</i>
   <i type="logical" name="LFOCKAEDFT"> F  </i>
   <i name="HFSCREEN">      0.00000000</i>
   <i name="HFSCREENC">      0.00000000</i>
   <i type="int" name="NBANDSGWLOW">     0</i>
  </separator>
  <separator name="vdW DFT" >
   <i type="logical" name="LUSE_VDW"> F  </i>
   <i name="Zab_VDW">     -0.84910000</i>
   <i name="PARAM1">      0.12340000</i>
   <i name="PARAM2">      1.00000000</i>
   <i name="PARAM3">      0.00000000</i>
  </separator>
  <separator name="model GW" >
   <i type="int" name="MODEL_GW">     0</i>
   <i name="MODEL_EPS0">      7.86828565</i>
   <i name="MODEL_ALPHA">      1.00000000</i>
  </separator>
  <separator name="linear response parameters" >
   <i type="logical" name="LEPSILON"> F  </i>
   <i type="logical" name="LRPA"> F  </i>
   <i type="logical" name="LNABLA"> F  </i>
   <i type="logical" name="LVEL"> F  </i>
   <i type="int" name="KINTER">     0</i>
   <i name="CSHIFT">      0.10000000</i>
   <i name="OMEGAMAX">     -1.00000000</i>
   <i name="DEG_THRESHOLD">      0.00200000</i>
  </separator>
  <separator name="orbital magnetization" >
   <i type="logical" name="NUCIND"> F  </i>
   <v name="MAGPOS">      0.00000000      0.00000000      0.00000000</v>
   <i type="logical" name="LNICSALL"> T  </i>
   <i type="logical" name="ORBITALMAG"> F  </i>
   <i type="logical" name="LMAGBLOCH"> F  </i>
   <i type="logical" name="LCHIMAG"> F  </i>
   <i type="logical" name="LGAUGE"> T  </i>
   <i type="int" name="MAGATOM">     0</i>
   <v name="MAGDIPOL">      0.00000000      0.00000000      0.00000000</v>
   <v name="AVECCONST">      0.00000000      0.00000000      0.00000000</v>
  </separator>
  <separator name="response functions" >
   <i type="logical" name="LADDER"> F  </i>
   <i type="logical" name="LFXC"> F  </i>
   <i type="logical" name="LHARTREE"> T  </i>
   <i type="int" name="IBSE">     0</i>
   <i type="logical" name="LTCTE"> F  </i>
   <i type="logical" name="LTETE"> F  </i>
   <i type="logical" name="LTRIPLET"> F  </i>
   <i type="logical" name="LFXCEPS"> F  </i>
   <i type="logical" name="LFXHEG"> F  </i>
   <i type="logical" name="L2ORDER"> F  </i>
   <i type="logical" name="LUSEW"> F  </i>
   <i name="ENCUTGW">     -2.00000000</i>
   <i name="ENCUTGWSOFT">     -2.00000000</i>
   <i name="ENCUTLF">     -1.00000000</i>
   <i type="int" name="LMAXMP2">    -1</i>
   <i name="SCISSOR">      0.00000000</i>
   <i type="int" name="NOMEGA">     0</i>
   <i type="int" name="NOMEGAR">     0</i>
   <i type="int" name="NBANDSGW">    -1</i>
   <i type="int" name="NBANDSO">    -1</i>
   <i type="int" name="NBANDSV">    -1</i>
   <i type="int" name="NELM">     1</i>
   <i type="int" name="DIM">     3</i>
   <i type="int" name="ANTIRES">     0</i>
   <i name="OMEGAMAX">    -30.00000000</i>
   <i name="OMEGAMIN">    -30.00000000</i>
   <i name="OMEGATL">   -200.00000000</i>
   <i type="int" name="OMEGAGRID">     0</i>
   <i name="CSHIFT">     -0.10000000</i>
   <i type="logical" name="SELFENERGY"> F  </i>
   <i type="logical" name="LSPECTRAL"> F  </i>
   <i type="logical" name="ODDONLYGW"> F  </i>
   <i type="logical" name="EVENONLYGW"> F  </i>
   <i type="int" name="NKREDLFX">     1</i>
   <i type="int" name="NKREDLFY">     1</i>
   <i type="int" name="NKREDLFZ">     1</i>
   <i type="int" name="MAXMEM">  1800</i>
   <i type="int" name="TELESCOPE">     0</i>
   <i type="int" name="TAUPAR">     1</i>
  </separator>
  <separator name="External order field" >
   <i name="OFIELD_KAPPA">      0.00000000</i>
   <v name="OFIELD_K">      0.00000000      0.00000000      0.00000000</v>
   <i name="OFIELD_Q6_NEAR">      0.00000000</i>
   <i name="OFIELD_Q6_FAR">      0.00000000</i>
   <i name="OFIELD_A">      0.00000000</i>
  </separator>
 </parameters>
 <atominfo>
  <atoms>     243 </atoms>
  <types>       2 </types>
  <array name="atoms" >
   <dimension dim="1">ion</dimension>
   <field type="string">element</field>
   <field type="int">atomtype</field>
   <set>
    <rc><c>O </c><c>   1</c></rc>
    <rc><c>O </c><c>   1</c></rc>
    <rc><c>O </c><c>   1</c></rc>
    <rc><c>O </c><c>   1</c></rc>
    <rc><c>O </c><c>   1</c></rc>
    <rc><c>O </c><c>   1</c></rc>
    <rc><c>O </c><c>   1</c></rc>
    <rc><c>O </c><c>   1</c></rc>
    <rc><c>O </c><c>   1</c></rc>
    <rc><c>O </c><c>   1</c></rc>
    <rc><c>O </c><c>   1</c></rc>
    <rc><c>O </c><c>   1</c></rc>
    <rc><c>O </c><c>   1</c></rc>
    <rc><c>O </c><c>   1</c></rc>
    <rc><c>O </c><c>   1</c></rc>
    <rc><c>O </c><c>   1</c></rc>
    <rc><c>O </c><c>   1</c></rc>
    <rc><c>O </c><c>   1</c></rc>
    <rc><c>O </c><c>   1</c></rc>
    <rc><c>O </c><c>   1</c></rc>
    <rc><c>O </c><c>   1</c></rc>
    <rc><c>O </c><c>   1</c></rc>
    <rc><c>O </c><c>   1</c></rc>
    <rc><c>O </c><c>   1</c></rc>
    <rc><c>O </c><c>   1</c></rc>
    <rc><c>O </c><c>   1</c></rc>
    <rc><c>O </c><c>   1</c></rc>
    <rc><c>O </c><c>   1</c></rc>
    <rc><c>O </c><c>   1</c></rc>
    <rc><c>O </c><c>   1</c></rc>
    <rc><c>O </c><c>   1</c></rc>
    <rc><c>O </c><c>   1</c></rc>
    <rc><c>O </c><c>   1</c></rc>
    <rc><c>O </c><c>   1</c></rc>
    <rc><c>O </c><c>   1</c></rc>
    <rc><c>O </c><c>   1</c></rc>
    <rc><c>O </c><c>   1</c></rc>
    <rc><c>O </c><c>   1</c></rc>
    <rc><c>O </c><c>   1</c></rc>
    <rc><c>O </c><c>   1</c></rc>
    <rc><c>O </c><c>   1</c></rc>
    <rc><c>O </c><c>   1</c></rc>
    <rc><c>O </c><c>   1</c></rc>
    <rc><c>O </c><c>   1</c></rc>
    <rc><c>O </c><c>   1</c></rc>
    <rc><c>O </c><c>   1</c></rc>
    <rc><c>O </c><c>   1</c></rc>
    <rc><c>O </c><c>   1</c></rc>
    <rc><c>O </c><c>   1</c></rc>
    <rc><c>O </c><c>   1</c></rc>
    <rc><c>O </c><c>   1</c></rc>
    <rc><c>O </c><c>   1</c></rc>
    <rc><c>O </c><c>   1</c></rc>
    <rc><c>O </c><c>   1</c></rc>
    <rc><c>O </c><c>   1</c></rc>
    <rc><c>O </c><c>   1</c></rc>
    <rc><c>O </c><c>   1</c></rc>
    <rc><c>O </c><c>   1</c></rc>
    <rc><c>O </c><c>   1</c></rc>
    <rc><c>O </c><c>   1</c></rc>
    <rc><c>O </c><c>   1</c></rc>
    <rc><c>O </c><c>   1</c></rc>
    <rc><c>O </c><c>   1</c></rc>
    <rc><c>O </c><c>   1</c></rc>
    <rc><c>O </c><c>   1</c></rc>
    <rc><c>O </c><c>   1</c></rc>
    <rc><c>O </c><c>   1</c></rc>
    <rc><c>O </c><c>   1</c></rc>
    <rc><c>O </c><c>   1</c></rc>
    <rc><c>O </c><c>   1</c></rc>
    <rc><c>O </c><c>   1</c></rc>
    <rc><c>O </c><c>   1</c></rc>
    <rc><c>O </c><c>   1</c></rc>
    <rc><c>O </c><c>   1</c></rc>
    <rc><c>O </c><c>   1</c></rc>
    <rc><c>O </c><c>   1</c></rc>
    <rc><c>O </c><c>   1</c></rc>
    <rc><c>O </c><c>   1</c></rc>
    <rc><c>O </c><c>   1</c></rc>
    <rc><c>O </c><c>   1</c></rc>
    <rc><c>O </c><c>   1</c></rc>
    <rc><c>O </c><c>   1</c></rc>
    <rc><c>O </c><c>   1</c></rc>
    <rc><c>O </c><c>   1</c></rc>
    <rc><c>O </c><c>   1</c></rc>
    <rc><c>O </c><c>   1</c></rc>
    <rc><c>O </c><c>   1</c></rc>
    <rc><c>O </c><c>   1</c></rc>
    <rc><c>O </c><c>   1</c></rc>
    <rc><c>O </c><c>   1</c></rc>
    <rc><c>O </c><c>   1</c></rc>
    <rc><c>O </c><c>   1</c></rc>
    <rc><c>O </c><c>   1</c></rc>
    <rc><c>O </c><c>   1</c></rc>
    <rc><c>O </c><c>   1</c></rc>
    <rc><c>O </c><c>   1</c></rc>
    <rc><c>O </c><c>   1</c></rc>
    <rc><c>O </c><c>   1</c></rc>
    <rc><c>O </c><c>   1</c></rc>
    <rc><c>O </c><c>   1</c></rc>
    <rc><c>O </c><c>   1</c></rc>
    <rc><c>O </c><c>   1</c></rc>
    <rc><c>O </c><c>   1</c></rc>
    <rc><c>O </c><c>   1</c></rc>
    <rc><c>O </c><c>   1</c></rc>
    <rc><c>O </c><c>   1</c></rc>
    <rc><c>O </c><c>   1</c></rc>
    <rc><c>O </c><c>   1</c></rc>
    <rc><c>O </c><c>   1</c></rc>
    <rc><c>O </c><c>   1</c></rc>
    <rc><c>O </c><c>   1</c></rc>
    <rc><c>O </c><c>   1</c></rc>
    <rc><c>O </c><c>   1</c></rc>
    <rc><c>O </c><c>   1</c></rc>
    <rc><c>O </c><c>   1</c></rc>
    <rc><c>O </c><c>   1</c></rc>
    <rc><c>O </c><c>   1</c></rc>
    <rc><c>O </c><c>   1</c></rc>
    <rc><c>O </c><c>   1</c></rc>
    <rc><c>O </c><c>   1</c></rc>
    <rc><c>O </c><c>   1</c></rc>
    <rc><c>O </c><c>   1</c></rc>
    <rc><c>O </c><c>   1</c></rc>
    <rc><c>O </c><c>   1</c></rc>
    <rc><c>O </c><c>   1</c></rc>
    <rc><c>O </c><c>   1</c></rc>
    <rc><c>O </c><c>   1</c></rc>
    <rc><c>O </c><c>   1</c></rc>
    <rc><c>O </c><c>   1</c></rc>
    <rc><c>O </c><c>   1</c></rc>
    <rc><c>O </c><c>   1</c></rc>
    <rc><c>O </c><c>   1</c></rc>
    <rc><c>O </c><c>   1</c></rc>
    <rc><c>O </c><c>   1</c></rc>
    <rc><c>O </c><c>   1</c></rc>
    <rc><c>O </c><c>   1</c></rc>
    <rc><c>O </c><c>   1</c></rc>
    <rc><c>O </c><c>   1</c></rc>
    <rc><c>O </c><c>   1</c></rc>
    <rc><c>O </c><c>   1</c></rc>
    <rc><c>O </c><c>   1</c></rc>
    <rc><c>O </c><c>   1</c></rc>
    <rc><c>O </c><c>   1</c></rc>
    <rc><c>O </c><c>   1</c></rc>
    <rc><c>O </c><c>   1</c></rc>
    <rc><c>O </c><c>   1</c></rc>
    <rc><c>O </c><c>   1</c></rc>
    <rc><c>O </c><c>   1</c></rc>
    <rc><c>O </c><c>   1</c></rc>
    <rc><c>O </c><c>   1</c></rc>
    <rc><c>O </c><c>   1</c></rc>
    <rc><c>O </c><c>   1</c></rc>
    <rc><c>O </c><c>   1</c></rc>
    <rc><c>O </c><c>   1</c></rc>
    <rc><c>O </c><c>   1</c></rc>
    <rc><c>O </c><c>   1</c></rc>
    <rc><c>O </c><c>   1</c></rc>
    <rc><c>O </c><c>   1</c></rc>
    <rc><c>O </c><c>   1</c></rc>
    <rc><c>O </c><c>   1</c></rc>
    <rc><c>O </c><c>   1</c></rc>
    <rc><c>O </c><c>   1</c></rc>
    <rc><c>Si</c><c>   2</c></rc>
    <rc><c>Si</c><c>   2</c></rc>
    <rc><c>Si</c><c>   2</c></rc>
    <rc><c>Si</c><c>   2</c></rc>
    <rc><c>Si</c><c>   2</c></rc>
    <rc><c>Si</c><c>   2</c></rc>
    <rc><c>Si</c><c>   2</c></rc>
    <rc><c>Si</c><c>   2</c></rc>
    <rc><c>Si</c><c>   2</c></rc>
    <rc><c>Si</c><c>   2</c></rc>
    <rc><c>Si</c><c>   2</c></rc>
    <rc><c>Si</c><c>   2</c></rc>
    <rc><c>Si</c><c>   2</c></rc>
    <rc><c>Si</c><c>   2</c></rc>
    <rc><c>Si</c><c>   2</c></rc>
    <rc><c>Si</c><c>   2</c></rc>
    <rc><c>Si</c><c>   2</c></rc>
    <rc><c>Si</c><c>   2</c></rc>
    <rc><c>Si</c><c>   2</c></rc>
    <rc><c>Si</c><c>   2</c></rc>
    <rc><c>Si</c><c>   2</c></rc>
    <rc><c>Si</c><c>   2</c></rc>
    <rc><c>Si</c><c>   2</c></rc>
    <rc><c>Si</c><c>   2</c></rc>
    <rc><c>Si</c><c>   2</c></rc>
    <rc><c>Si</c><c>   2</c></rc>
    <rc><c>Si</c><c>   2</c></rc>
    <rc><c>Si</c><c>   2</c></rc>
    <rc><c>Si</c><c>   2</c></rc>
    <rc><c>Si</c><c>   2</c></rc>
    <rc><c>Si</c><c>   2</c></rc>
    <rc><c>Si</c><c>   2</c></rc>
    <rc><c>Si</c><c>   2</c></rc>
    <rc><c>Si</c><c>   2</c></rc>
    <rc><c>Si</c><c>   2</c></rc>
    <rc><c>Si</c><c>   2</c></rc>
    <rc><c>Si</c><c>   2</c></rc>
    <rc><c>Si</c><c>   2</c></rc>
    <rc><c>Si</c><c>   2</c></rc>
    <rc><c>Si</c><c>   2</c></rc>
    <rc><c>Si</c><c>   2</c></rc>
    <rc><c>Si</c><c>   2</c></rc>
    <rc><c>Si</c><c>   2</c></rc>
    <rc><c>Si</c><c>   2</c></rc>
    <rc><c>Si</c><c>   2</c></rc>
    <rc><c>Si</c><c>   2</c></rc>
    <rc><c>Si</c><c>   2</c></rc>
    <rc><c>Si</c><c>   2</c></rc>
    <rc><c>Si</c><c>   2</c></rc>
    <rc><c>Si</c><c>   2</c></rc>
    <rc><c>Si</c><c>   2</c></rc>
    <rc><c>Si</c><c>   2</c></rc>
    <rc><c>Si</c><c>   2</c></rc>
    <rc><c>Si</c><c>   2</c></rc>
    <rc><c>Si</c><c>   2</c></rc>
    <rc><c>Si</c><c>   2</c></rc>
    <rc><c>Si</c><c>   2</c></rc>
    <rc><c>Si</c><c>   2</c></rc>
    <rc><c>Si</c><c>   2</c></rc>
    <rc><c>Si</c><c>   2</c></rc>
    <rc><c>Si</c><c>   2</c></rc>
    <rc><c>Si</c><c>   2</c></rc>
    <rc><c>Si</c><c>   2</c></rc>
    <rc><c>Si</c><c>   2</c></rc>
    <rc><c>Si</c><c>   2</c></rc>
    <rc><c>Si</c><c>   2</c></rc>
    <rc><c>Si</c><c>   2</c></rc>
    <rc><c>Si</c><c>   2</c></rc>
    <rc><c>Si</c><c>   2</c></rc>
    <rc><c>Si</c><c>   2</c></rc>
    <rc><c>Si</c><c>   2</c></rc>
    <rc><c>Si</c><c>   2</c></rc>
    <rc><c>Si</c><c>   2</c></rc>
    <rc><c>Si</c><c>   2</c></rc>
    <rc><c>Si</c><c>   2</c></rc>
    <rc><c>Si</c><c>   2</c></rc>
    <rc><c>Si</c><c>   2</c></rc>
    <rc><c>Si</c><c>   2</c></rc>
    <rc><c>Si</c><c>   2</c></rc>
    <rc><c>Si</c><c>   2</c></rc>
    <rc><c>Si</c><c>   2</c></rc>
   </set>
  </array>
  <array name="atomtypes" >
   <dimension dim="1">type</dimension>
   <field type="int">atomspertype</field>
   <field type="string">element</field>
   <field>mass</field>
   <field>valence</field>
   <field type="string">pseudopotential</field>
   <set>
    <rc><c> 162</c><c>O </c><c>     16.00000000</c><c>      6.00000000</c><c>  PAW_PBE O 08Apr2002                   </c></rc>
    <rc><c>  81</c><c>Si</c><c>     28.08500000</c><c>      4.00000000</c><c>  PAW_PBE Si 05Jan2001                  </c></rc>
   </set>
  </array>
 </atominfo>
 <structure name="initialpos" >
  <crystal>
   <varray name="basis" >
    <v>      14.99190030       0.00000000       0.00000000 </v>
    <v>      -7.49594983      12.98336669       0.00000000 </v>
    <v>       0.00000030       0.00000052      16.37160030 </v>
   </varray>
   <i name="volume">   3186.65568995 </i>
   <varray name="rec_basis" >
    <v>       0.06670268       0.03851081      -0.00000000 </v>
    <v>       0.00000000       0.07702162      -0.00000000 </v>
    <v>       0.00000000       0.00000000       0.06108138 </v>
   </varray>
  </crystal>
  <varray name="positions" >
   <v>       0.06921667       0.13843334       0.00000000 </v>
   <v>       0.26411666       0.06921667       0.11111111 </v>
   <v>       0.19489999       0.26411666       0.22222222 </v>
   <v>       0.26411666       0.19489999       0.00000000 </v>
   <v>       0.06921667       0.26411666       0.11111111 </v>
   <v>       0.13843334       0.06921667       0.22222222 </v>
   <v>       0.06921667       0.13843334       0.33333333 </v>
   <v>       0.26411666       0.06921667       0.44444444 </v>
   <v>       0.19489999       0.26411666       0.55555556 </v>
   <v>       0.26411666       0.19489999       0.33333333 </v>
   <v>       0.06921667       0.26411666       0.44444444 </v>
   <v>       0.13843334       0.06921667       0.55555556 </v>
   <v>       0.06921667       0.13843334       0.66666667 </v>
   <v>       0.26411666       0.06921667       0.77777778 </v>
   <v>       0.19489999       0.26411666       0.88888889 </v>
   <v>       0.26411666       0.19489999       0.66666667 </v>
   <v>       0.06921667       0.26411666       0.77777778 </v>
   <v>       0.13843334       0.06921667       0.88888889 </v>
   <v>       0.06921667       0.47176667       0.00000000 </v>
   <v>       0.26411666       0.40255000       0.11111111 </v>
   <v>       0.19489999       0.59745000       0.22222222 </v>
   <v>       0.26411666       0.52823333       0.00000000 </v>
   <v>       0.06921667       0.59745000       0.11111111 </v>
   <v>       0.13843334       0.40255000       0.22222222 </v>
   <v>       0.06921667       0.47176667       0.33333333 </v>
   <v>       0.26411666       0.40255000       0.44444444 </v>
   <v>       0.19489999       0.59745000       0.55555556 </v>
   <v>       0.26411666       0.52823333       0.33333333 </v>
   <v>       0.06921667       0.59745000       0.44444444 </v>
   <v>       0.13843334       0.40255000       0.55555556 </v>
   <v>       0.06921667       0.47176667       0.66666667 </v>
   <v>       0.26411666       0.40255000       0.77777778 </v>
   <v>       0.19489999       0.59745000       0.88888889 </v>
   <v>       0.26411666       0.52823333       0.66666667 </v>
   <v>       0.06921667       0.59745000       0.77777778 </v>
   <v>       0.13843334       0.40255000       0.88888889 </v>
   <v>       0.06921667       0.80510001       0.00000000 </v>
   <v>       0.26411666       0.73588334       0.11111111 </v>
   <v>       0.19489999       0.93078333       0.22222222 </v>
   <v>       0.26411666       0.86156666       0.00000000 </v>
   <v>       0.06921667       0.93078333       0.11111111 </v>
   <v>       0.13843334       0.73588334       0.22222222 </v>
   <v>       0.06921667       0.80510001       0.33333333 </v>
   <v>       0.26411666       0.73588334       0.44444444 </v>
   <v>       0.19489999       0.93078333       0.55555556 </v>
   <v>       0.26411666       0.86156666       0.33333333 </v>
   <v>       0.06921667       0.93078333       0.44444444 </v>
   <v>       0.13843334       0.73588334       0.55555556 </v>
   <v>       0.06921667       0.80510001       0.66666667 </v>
   <v>       0.26411666       0.73588334       0.77777778 </v>
   <v>       0.19489999       0.93078333       0.88888889 </v>
   <v>       0.26411666       0.86156666       0.66666667 </v>
   <v>       0.06921667       0.93078333       0.77777778 </v>
   <v>       0.13843334       0.73588334       0.88888889 </v>
   <v>       0.40255000       0.13843334       0.00000000 </v>
   <v>       0.59745000       0.06921667       0.11111111 </v>
   <v>       0.52823333       0.26411666       0.22222222 </v>
   <v>       0.59745000       0.19489999       0.00000000 </v>
   <v>       0.40255000       0.26411666       0.11111111 </v>
   <v>       0.47176667       0.06921667       0.22222222 </v>
   <v>       0.40255000       0.13843334       0.33333333 </v>
   <v>       0.59745000       0.06921667       0.44444444 </v>
   <v>       0.52823333       0.26411666       0.55555556 </v>
   <v>       0.59745000       0.19489999       0.33333333 </v>
   <v>       0.40255000       0.26411666       0.44444444 </v>
   <v>       0.47176667       0.06921667       0.55555556 </v>
   <v>       0.40255000       0.13843334       0.66666667 </v>
   <v>       0.59745000       0.06921667       0.77777778 </v>
   <v>       0.52823333       0.26411666       0.88888889 </v>
   <v>       0.59745000       0.19489999       0.66666667 </v>
   <v>       0.40255000       0.26411666       0.77777778 </v>
   <v>       0.47176667       0.06921667       0.88888889 </v>
   <v>       0.40255000       0.47176667       0.00000000 </v>
   <v>       0.59745000       0.40255000       0.11111111 </v>
   <v>       0.52823333       0.59745000       0.22222222 </v>
   <v>       0.59745000       0.52823333       0.00000000 </v>
   <v>       0.40255000       0.59745000       0.11111111 </v>
   <v>       0.47176667       0.40255000       0.22222222 </v>
   <v>       0.40255000       0.47176667       0.33333333 </v>
   <v>       0.59745000       0.40255000       0.44444444 </v>
   <v>       0.52823333       0.59745000       0.55555556 </v>
   <v>       0.59745000       0.52823333       0.33333333 </v>
   <v>       0.40255000       0.59745000       0.44444444 </v>
   <v>       0.47176667       0.40255000       0.55555556 </v>
   <v>       0.40255000       0.47176667       0.66666667 </v>
   <v>       0.59745000       0.40255000       0.77777778 </v>
   <v>       0.52823333       0.59745000       0.88888889 </v>
   <v>       0.59745000       0.52823333       0.66666667 </v>
   <v>       0.40255000       0.59745000       0.77777778 </v>
   <v>       0.47176667       0.40255000       0.88888889 </v>
   <v>       0.40255000       0.80510001       0.00000000 </v>
   <v>       0.59745000       0.73588334       0.11111111 </v>
   <v>       0.52823333       0.93078333       0.22222222 </v>
   <v>       0.59745000       0.86156666       0.00000000 </v>
   <v>       0.40255000       0.93078333       0.11111111 </v>
   <v>       0.47176667       0.73588334       0.22222222 </v>
   <v>       0.40255000       0.80510001       0.33333333 </v>
   <v>       0.59745000       0.73588334       0.44444444 </v>
   <v>       0.52823333       0.93078333       0.55555556 </v>
   <v>       0.59745000       0.86156666       0.33333333 </v>
   <v>       0.40255000       0.93078333       0.44444444 </v>
   <v>       0.47176667       0.73588334       0.55555556 </v>
   <v>       0.40255000       0.80510001       0.66666667 </v>
   <v>       0.59745000       0.73588334       0.77777778 </v>
   <v>       0.52823333       0.93078333       0.88888889 </v>
   <v>       0.59745000       0.86156666       0.66666667 </v>
   <v>       0.40255000       0.93078333       0.77777778 </v>
   <v>       0.47176667       0.73588334       0.88888889 </v>
   <v>       0.73588334       0.13843334       0.00000000 </v>
   <v>       0.93078333       0.06921667       0.11111111 </v>
   <v>       0.86156666       0.26411666       0.22222222 </v>
   <v>       0.93078333       0.19489999       0.00000000 </v>
   <v>       0.73588334       0.26411666       0.11111111 </v>
   <v>       0.80510001       0.06921667       0.22222222 </v>
   <v>       0.73588334       0.13843334       0.33333333 </v>
   <v>       0.93078333       0.06921667       0.44444444 </v>
   <v>       0.86156666       0.26411666       0.55555556 </v>
   <v>       0.93078333       0.19489999       0.33333333 </v>
   <v>       0.73588334       0.26411666       0.44444444 </v>
   <v>       0.80510001       0.06921667       0.55555556 </v>
   <v>       0.73588334       0.13843334       0.66666667 </v>
   <v>       0.93078333       0.06921667       0.77777778 </v>
   <v>       0.86156666       0.26411666       0.88888889 </v>
   <v>       0.93078333       0.19489999       0.66666667 </v>
   <v>       0.73588334       0.26411666       0.77777778 </v>
   <v>       0.80510001       0.06921667       0.88888889 </v>
   <v>       0.73588334       0.47176667       0.00000000 </v>
   <v>       0.93078333       0.40255000       0.11111111 </v>
   <v>       0.86156666       0.59745000       0.22222222 </v>
   <v>       0.93078333       0.52823333       0.00000000 </v>
   <v>       0.73588334       0.59745000       0.11111111 </v>
   <v>       0.80510001       0.40255000       0.22222222 </v>
   <v>       0.73588334       0.47176667       0.33333333 </v>
   <v>       0.93078333       0.40255000       0.44444444 </v>
   <v>       0.86156666       0.59745000       0.55555556 </v>
   <v>       0.93078333       0.52823333       0.33333333 </v>
   <v>       0.73588334       0.59745000       0.44444444 </v>
   <v>       0.80510001       0.40255000       0.55555556 </v>
   <v>       0.73588334       0.47176667       0.66666667 </v>
   <v>       0.93078333       0.40255000       0.77777778 </v>
   <v>       0.86156666       0.59745000       0.88888889 </v>
   <v>       0.93078333       0.52823333       0.66666667 </v>
   <v>       0.73588334       0.59745000       0.77777778 </v>
   <v>       0.80510001       0.40255000       0.88888889 </v>
   <v>       0.73588334       0.80510001       0.00000000 </v>
   <v>       0.93078333       0.73588334       0.11111111 </v>
   <v>       0.86156666       0.93078333       0.22222222 </v>
   <v>       0.93078333       0.86156666       0.00000000 </v>
   <v>       0.73588334       0.93078333       0.11111111 </v>
   <v>       0.80510001       0.73588334       0.22222222 </v>
   <v>       0.73588334       0.80510001       0.33333333 </v>
   <v>       0.93078333       0.73588334       0.44444444 </v>
   <v>       0.86156666       0.93078333       0.55555556 </v>
   <v>       0.93078333       0.86156666       0.33333333 </v>
   <v>       0.73588334       0.93078333       0.44444444 </v>
   <v>       0.80510001       0.73588334       0.55555556 </v>
   <v>       0.73588334       0.80510001       0.66666667 </v>
   <v>       0.93078333       0.73588334       0.77777778 </v>
   <v>       0.86156666       0.93078333       0.88888889 </v>
   <v>       0.93078333       0.86156666       0.66666667 </v>
   <v>       0.73588334       0.93078333       0.77777778 </v>
   <v>       0.80510001       0.73588334       0.88888889 </v>
   <v>       0.16666667       0.00000000       0.16666667 </v>
   <v>       0.16666667       0.16666667       0.27777778 </v>
   <v>       0.00000000       0.16666667       0.05555556 </v>
   <v>       0.16666667       0.00000000       0.50000000 </v>
   <v>       0.16666667       0.16666667       0.61111111 </v>
   <v>       0.00000000       0.16666667       0.38888889 </v>
   <v>       0.16666667       0.00000000       0.83333333 </v>
   <v>       0.16666667       0.16666667       0.94444444 </v>
   <v>       0.00000000       0.16666667       0.72222222 </v>
   <v>       0.16666667       0.33333333       0.16666667 </v>
   <v>       0.16666667       0.50000000       0.27777778 </v>
   <v>       0.00000000       0.50000000       0.05555556 </v>
   <v>       0.16666667       0.33333333       0.50000000 </v>
   <v>       0.16666667       0.50000000       0.61111111 </v>
   <v>       0.00000000       0.50000000       0.38888889 </v>
   <v>       0.16666667       0.33333333       0.83333333 </v>
   <v>       0.16666667       0.50000000       0.94444444 </v>
   <v>       0.00000000       0.50000000       0.72222222 </v>
   <v>       0.16666667       0.66666667       0.16666667 </v>
   <v>       0.16666667       0.83333333       0.27777778 </v>
   <v>       0.00000000       0.83333333       0.05555556 </v>
   <v>       0.16666667       0.66666667       0.50000000 </v>
   <v>       0.16666667       0.83333333       0.61111111 </v>
   <v>       0.00000000       0.83333333       0.38888889 </v>
   <v>       0.16666667       0.66666667       0.83333333 </v>
   <v>       0.16666667       0.83333333       0.94444444 </v>
   <v>       0.00000000       0.83333333       0.72222222 </v>
   <v>       0.50000000       0.00000000       0.16666667 </v>
   <v>       0.50000000       0.16666667       0.27777778 </v>
   <v>       0.33333333       0.16666667       0.05555556 </v>
   <v>       0.50000000       0.00000000       0.50000000 </v>
   <v>       0.50000000       0.16666667       0.61111111 </v>
   <v>       0.33333333       0.16666667       0.38888889 </v>
   <v>       0.50000000       0.00000000       0.83333333 </v>
   <v>       0.50000000       0.16666667       0.94444444 </v>
   <v>       0.33333333       0.16666667       0.72222222 </v>
   <v>       0.50000000       0.33333333       0.16666667 </v>
   <v>       0.50000000       0.50000000       0.27777778 </v>
   <v>       0.33333333       0.50000000       0.05555556 </v>
   <v>       0.50000000       0.33333333       0.50000000 </v>
   <v>       0.50000000       0.50000000       0.61111111 </v>
   <v>       0.33333333       0.50000000       0.38888889 </v>
   <v>       0.50000000       0.33333333       0.83333333 </v>
   <v>       0.50000000       0.50000000       0.94444444 </v>
   <v>       0.33333333       0.50000000       0.72222222 </v>
   <v>       0.50000000       0.66666667       0.16666667 </v>
   <v>       0.50000000       0.83333333       0.27777778 </v>
   <v>       0.33333333       0.83333333       0.05555556 </v>
   <v>       0.50000000       0.66666667       0.50000000 </v>
   <v>       0.50000000       0.83333333       0.61111111 </v>
   <v>       0.33333333       0.83333333       0.38888889 </v>
   <v>       0.50000000       0.66666667       0.83333333 </v>
   <v>       0.50000000       0.83333333       0.94444444 </v>
   <v>       0.33333333       0.83333333       0.72222222 </v>
   <v>       0.83333333       0.00000000       0.16666667 </v>
   <v>       0.83333333       0.16666667       0.27777778 </v>
   <v>       0.66666667       0.16666667       0.05555556 </v>
   <v>       0.83333333       0.00000000       0.50000000 </v>
   <v>       0.83333333       0.16666667       0.61111111 </v>
   <v>       0.66666667       0.16666667       0.38888889 </v>
   <v>       0.83333333       0.00000000       0.83333333 </v>
   <v>       0.83333333       0.16666667       0.94444444 </v>
   <v>       0.66666667       0.16666667       0.72222222 </v>
   <v>       0.83333333       0.33333333       0.16666667 </v>
   <v>       0.83333333       0.50000000       0.27777778 </v>
   <v>       0.66666667       0.50000000       0.05555556 </v>
   <v>       0.83333333       0.33333333       0.50000000 </v>
   <v>       0.83333333       0.50000000       0.61111111 </v>
   <v>       0.66666667       0.50000000       0.38888889 </v>
   <v>       0.83333333       0.33333333       0.83333333 </v>
   <v>       0.83333333       0.50000000       0.94444444 </v>
   <v>       0.66666667       0.50000000       0.72222222 </v>
   <v>       0.83333333       0.66666667       0.16666667 </v>
   <v>       0.83333333       0.83333333       0.27777778 </v>
   <v>       0.66666667       0.83333333       0.05555556 </v>
   <v>       0.83333333       0.66666667       0.50000000 </v>
   <v>       0.83333333       0.83333333       0.61111111 </v>
   <v>       0.66666667       0.83333333       0.38888889 </v>
   <v>       0.83333333       0.66666667       0.83333333 </v>
   <v>       0.83333333       0.83333333       0.94444444 </v>
   <v>       0.66666667       0.83333333       0.72222222 </v>
  </varray>
 </structure>
 <calculation>
  <scstep>
   <time name="dav">  187.79  187.81</time>
   <time name="total">  187.87  187.90</time>
   <energy>
    <i name="alphaZ">   1803.06568644 </i>
    <i name="ewald"> -48244.28156214 </i>
    <i name="hartreedc"> -27084.92649043 </i>
    <i name="XCdc">   3831.99201685 </i>
    <i name="pawpsdc">  63279.04302504 </i>
    <i name="pawaedc"> -62145.37184510 </i>
    <i name="eentropy">     -0.04507675 </i>
    <i name="bandstr">  -1604.43670276 </i>
    <i name="atom">  78374.96320226 </i>
    <i name="e_fr_energy">   8210.00225341 </i>
    <i name="e_wo_entrp">   8210.04733016 </i>
    <i name="e_0_energy">   8210.02479178 </i>
   </energy>
  </scstep>
  <scstep>
   <time name="dav">  210.90  210.92</time>
   <time name="total">  210.91  210.94</time>
   <energy>
    <i name="e_fr_energy">  -1473.00353003 </i>
    <i name="e_wo_entrp">  -1473.00353003 </i>
    <i name="e_0_energy">  -1473.00353003 </i>
   </energy>
  </scstep>
  <scstep>
   <time name="dav">  210.04  210.08</time>
   <time name="total">  210.06  210.10</time>
   <energy>
    <i name="e_fr_energy">  -2174.01704757 </i>
    <i name="e_wo_entrp">  -2174.01704757 </i>
    <i name="e_0_energy">  -2174.01704757 </i>
   </energy>
  </scstep>
  <scstep>
   <time name="dav">  212.57  212.62</time>
   <time name="total">  212.59  212.64</time>
   <energy>
    <i name="e_fr_energy">  -2186.34862150 </i>
    <i name="e_wo_entrp">  -2186.34862150 </i>
    <i name="e_0_energy">  -2186.34862150 </i>
   </energy>
  </scstep>
  <scstep>
   <time name="dav">  210.35  210.38</time>
   <time name="total">  214.26  214.29</time>
   <energy>
    <i name="e_fr_energy">  -2186.64494458 </i>
    <i name="e_wo_entrp">  -2186.64494458 </i>
    <i name="e_0_energy">  -2186.64494458 </i>
   </energy>
  </scstep>
  <scstep>
   <time name="dav">  202.23  202.24</time>
   <time name="total">  206.21  206.22</time>
   <energy>
    <i name="e_fr_energy">  -1917.18997009 </i>
    <i name="e_wo_entrp">  -1917.18997009 </i>
    <i name="e_0_energy">  -1917.18997009 </i>
   </energy>
  </scstep>
  <scstep>
   <time name="dav">  224.86  224.88</time>
   <time name="total">  228.84  228.87</time>
   <energy>
    <i name="e_fr_energy">  -1915.60762847 </i>
    <i name="e_wo_entrp">  -1915.60762847 </i>
    <i name="e_0_energy">  -1915.60762847 </i>
   </energy>
  </scstep>
  <scstep>
   <time name="dav">  209.07  209.07</time>
   <time name="total">  213.04  213.05</time>
   <energy>
    <i name="e_fr_energy">  -1915.29572672 </i>
    <i name="e_wo_entrp">  -1915.29572672 </i>
    <i name="e_0_energy">  -1915.29572672 </i>
   </energy>
  </scstep>
  <scstep>
   <time name="dav">  203.87  203.89</time>
   <time name="total">  207.86  207.89</time>
   <energy>
    <i name="e_fr_energy">  -1915.53302608 </i>
    <i name="e_wo_entrp">  -1915.53302608 </i>
    <i name="e_0_energy">  -1915.53302608 </i>
   </energy>
  </scstep>
  <scstep>
   <time name="dav">  205.23  205.28</time>
   <time name="total">  209.20  209.24</time>
   <energy>
    <i name="e_fr_energy">  -1915.58823958 </i>
    <i name="e_wo_entrp">  -1915.58823958 </i>
    <i name="e_0_energy">  -1915.58823958 </i>
   </energy>
  </scstep>
  <scstep>
   <time name="dav">  208.85  208.92</time>
   <time name="total">  212.84  212.91</time>
   <energy>
    <i name="e_fr_energy">  -1915.59093342 </i>
    <i name="e_wo_entrp">  -1915.59093342 </i>
    <i name="e_0_energy">  -1915.59093342 </i>
   </energy>
  </scstep>
  <scstep>
   <time name="dav">  210.40  210.42</time>
   <time name="total">  214.36  214.38</time>
   <energy>
    <i name="e_fr_energy">  -1915.59118599 </i>
    <i name="e_wo_entrp">  -1915.59118599 </i>
    <i name="e_0_energy">  -1915.59118599 </i>
   </energy>
  </scstep>
  <scstep>
   <time name="dav">  205.26  205.29</time>
   <time name="total">  209.25  209.28</time>
   <energy>
    <i name="e_fr_energy">  -1915.59131273 </i>
    <i name="e_wo_entrp">  -1915.59131273 </i>
    <i name="e_0_energy">  -1915.59131273 </i>
   </energy>
  </scstep>
  <scstep>
   <time name="dav">  157.47  157.53</time>
   <time name="total">  161.41  161.47</time>
   <energy>
    <i name="e_fr_energy">  -1915.59132593 </i>
    <i name="e_wo_entrp">  -1915.59132593 </i>
    <i name="e_0_energy">  -1915.59132593 </i>
   </energy>
  </scstep>
  <scstep>
   <time name="dav">  148.80  148.83</time>
   <time name="total">  148.87  148.92</time>
   <energy>
    <i name="alphaZ">   1803.06568644 </i>
    <i name="ewald"> -48244.28156214 </i>
    <i name="hartreedc"> -30960.27112273 </i>
    <i name="XCdc">   4088.83065813 </i>
    <i name="pawpsdc"> 243927.80731379 </i>
    <i name="pawaedc">-242860.13537528 </i>
    <i name="eentropy">     -0.00000000 </i>
    <i name="bandstr">  -8045.57012588 </i>
    <i name="atom">  78374.96320226 </i>
    <i name="e_fr_energy">  -1915.59132541 </i>
    <i name="e_wo_entrp">  -1915.59132541 </i>
    <i name="e_0_energy">  -1915.59132541 </i>
   </energy>
  </scstep>
  <structure>
   <crystal>
    <varray name="basis" >
     <v>      14.99190030       0.00000000       0.00000000 </v>
     <v>      -7.49594983      12.98336669       0.00000000 </v>
     <v>       0.00000030       0.00000052      16.37160030 </v>
    </varray>
    <i name="volume">   3186.65568995 </i>
    <varray name="rec_basis" >
     <v>       0.06670268       0.03851081      -0.00000000 </v>
     <v>       0.00000000       0.07702162      -0.00000000 </v>
     <v>       0.00000000       0.00000000       0.06108138 </v>
    </varray>
   </crystal>
   <varray name="positions" >
    <v>       0.06921667       0.13843334       0.00000000 </v>
    <v>       0.26411666       0.06921667       0.11111111 </v>
    <v>       0.19489999       0.26411666       0.22222222 </v>
    <v>       0.26411666       0.19489999       0.00000000 </v>
    <v>       0.06921667       0.26411666       0.11111111 </v>
    <v>       0.13843334       0.06921667       0.22222222 </v>
    <v>       0.06921667       0.13843334       0.33333333 </v>
    <v>       0.26411666       0.06921667       0.44444444 </v>
    <v>       0.19489999       0.26411666       0.55555556 </v>
    <v>       0.26411666       0.19489999       0.33333333 </v>
    <v>       0.06921667       0.26411666       0.44444444 </v>
    <v>       0.13843334       0.06921667       0.55555556 </v>
    <v>       0.06921667       0.13843334       0.66666667 </v>
    <v>       0.26411666       0.06921667       0.77777778 </v>
    <v>       0.19489999       0.26411666       0.88888889 </v>
    <v>       0.26411666       0.19489999       0.66666667 </v>
    <v>       0.06921667       0.26411666       0.77777778 </v>
    <v>       0.13843334       0.06921667       0.88888889 </v>
    <v>       0.06921667       0.47176667       0.00000000 </v>
    <v>       0.26411666       0.40255000       0.11111111 </v>
    <v>       0.19489999       0.59745000       0.22222222 </v>
    <v>       0.26411666       0.52823333       0.00000000 </v>
    <v>       0.06921667       0.59745000       0.11111111 </v>
    <v>       0.13843334       0.40255000       0.22222222 </v>
    <v>       0.06921667       0.47176667       0.33333333 </v>
    <v>       0.26411666       0.40255000       0.44444444 </v>
    <v>       0.19489999       0.59745000       0.55555556 </v>
    <v>       0.26411666       0.52823333       0.33333333 </v>
    <v>       0.06921667       0.59745000       0.44444444 </v>
    <v>       0.13843334       0.40255000       0.55555556 </v>
    <v>       0.06921667       0.47176667       0.66666667 </v>
    <v>       0.26411666       0.40255000       0.77777778 </v>
    <v>       0.19489999       0.59745000       0.88888889 </v>
    <v>       0.26411666       0.52823333       0.66666667 </v>
    <v>       0.06921667       0.59745000       0.77777778 </v>
    <v>       0.13843334       0.40255000       0.88888889 </v>
    <v>       0.06921667       0.80510001       0.00000000 </v>
    <v>       0.26411666       0.73588334       0.11111111 </v>
    <v>       0.19489999       0.93078333       0.22222222 </v>
    <v>       0.26411666       0.86156666       0.00000000 </v>
    <v>       0.06921667       0.93078333       0.11111111 </v>
    <v>       0.13843334       0.73588334       0.22222222 </v>
    <v>       0.06921667       0.80510001       0.33333333 </v>
    <v>       0.26411666       0.73588334       0.44444444 </v>
    <v>       0.19489999       0.93078333       0.55555556 </v>
    <v>       0.26411666       0.86156666       0.33333333 </v>
    <v>       0.06921667       0.93078333       0.44444444 </v>
    <v>       0.13843334       0.73588334       0.55555556 </v>
    <v>       0.06921667       0.80510001       0.66666667 </v>
    <v>       0.26411666       0.73588334       0.77777778 </v>
    <v>       0.19489999       0.93078333       0.88888889 </v>
    <v>       0.26411666       0.86156666       0.66666667 </v>
    <v>       0.06921667       0.93078333       0.77777778 </v>
    <v>       0.13843334       0.73588334       0.88888889 </v>
    <v>       0.40255000       0.13843334       0.00000000 </v>
    <v>       0.59745000       0.06921667       0.11111111 </v>
    <v>       0.52823333       0.26411666       0.22222222 </v>
    <v>       0.59745000       0.19489999       0.00000000 </v>
    <v>       0.40255000       0.26411666       0.11111111 </v>
    <v>       0.47176667       0.06921667       0.22222222 </v>
    <v>       0.40255000       0.13843334       0.33333333 </v>
    <v>       0.59745000       0.06921667       0.44444444 </v>
    <v>       0.52823333       0.26411666       0.55555556 </v>
    <v>       0.59745000       0.19489999       0.33333333 </v>
    <v>       0.40255000       0.26411666       0.44444444 </v>
    <v>       0.47176667       0.06921667       0.55555556 </v>
    <v>       0.40255000       0.13843334       0.66666667 </v>
    <v>       0.59745000       0.06921667       0.77777778 </v>
    <v>       0.52823333       0.26411666       0.88888889 </v>
    <v>       0.59745000       0.19489999       0.66666667 </v>
    <v>       0.40255000       0.26411666       0.77777778 </v>
    <v>       0.47176667       0.06921667       0.88888889 </v>
    <v>       0.40255000       0.47176667       0.00000000 </v>
    <v>       0.59745000       0.40255000       0.11111111 </v>
    <v>       0.52823333       0.59745000       0.22222222 </v>
    <v>       0.59745000       0.52823333       0.00000000 </v>
    <v>       0.40255000       0.59745000       0.11111111 </v>
    <v>       0.47176667       0.40255000       0.22222222 </v>
    <v>       0.40255000       0.47176667       0.33333333 </v>
    <v>       0.59745000       0.40255000       0.44444444 </v>
    <v>       0.52823333       0.59745000       0.55555556 </v>
    <v>       0.59745000       0.52823333       0.33333333 </v>
    <v>       0.40255000       0.59745000       0.44444444 </v>
    <v>       0.47176667       0.40255000       0.55555556 </v>
    <v>       0.40255000       0.47176667       0.66666667 </v>
    <v>       0.59745000       0.40255000       0.77777778 </v>
    <v>       0.52823333       0.59745000       0.88888889 </v>
    <v>       0.59745000       0.52823333       0.66666667 </v>
    <v>       0.40255000       0.59745000       0.77777778 </v>
    <v>       0.47176667       0.40255000       0.88888889 </v>
    <v>       0.40255000       0.80510001       0.00000000 </v>
    <v>       0.59745000       0.73588334       0.11111111 </v>
    <v>       0.52823333       0.93078333       0.22222222 </v>
    <v>       0.59745000       0.86156666       0.00000000 </v>
    <v>       0.40255000       0.93078333       0.11111111 </v>
    <v>       0.47176667       0.73588334       0.22222222 </v>
    <v>       0.40255000       0.80510001       0.33333333 </v>
    <v>       0.59745000       0.73588334       0.44444444 </v>
    <v>       0.52823333       0.93078333       0.55555556 </v>
    <v>       0.59745000       0.86156666       0.33333333 </v>
    <v>       0.40255000       0.93078333       0.44444444 </v>
    <v>       0.47176667       0.73588334       0.55555556 </v>
    <v>       0.40255000       0.80510001       0.66666667 </v>
    <v>       0.59745000       0.73588334       0.77777778 </v>
    <v>       0.52823333       0.93078333       0.88888889 </v>
    <v>       0.59745000       0.86156666       0.66666667 </v>
    <v>       0.40255000       0.93078333       0.77777778 </v>
    <v>       0.47176667       0.73588334       0.88888889 </v>
    <v>       0.73588334       0.13843334       0.00000000 </v>
    <v>       0.93078333       0.06921667       0.11111111 </v>
    <v>       0.86156666       0.26411666       0.22222222 </v>
    <v>       0.93078333       0.19489999       0.00000000 </v>
    <v>       0.73588334       0.26411666       0.11111111 </v>
    <v>       0.80510001       0.06921667       0.22222222 </v>
    <v>       0.73588334       0.13843334       0.33333333 </v>
    <v>       0.93078333       0.06921667       0.44444444 </v>
    <v>       0.86156666       0.26411666       0.55555556 </v>
    <v>       0.93078333       0.19489999       0.33333333 </v>
    <v>       0.73588334       0.26411666       0.44444444 </v>
    <v>       0.80510001       0.06921667       0.55555556 </v>
    <v>       0.73588334       0.13843334       0.66666667 </v>
    <v>       0.93078333       0.06921667       0.77777778 </v>
    <v>       0.86156666       0.26411666       0.88888889 </v>
    <v>       0.93078333       0.19489999       0.66666667 </v>
    <v>       0.73588334       0.26411666       0.77777778 </v>
    <v>       0.80510001       0.06921667       0.88888889 </v>
    <v>       0.73588334       0.47176667       0.00000000 </v>
    <v>       0.93078333       0.40255000       0.11111111 </v>
    <v>       0.86156666       0.59745000       0.22222222 </v>
    <v>       0.93078333       0.52823333       0.00000000 </v>
    <v>       0.73588334       0.59745000       0.11111111 </v>
    <v>       0.80510001       0.40255000       0.22222222 </v>
    <v>       0.73588334       0.47176667       0.33333333 </v>
    <v>       0.93078333       0.40255000       0.44444444 </v>
    <v>       0.86156666       0.59745000       0.55555556 </v>
    <v>       0.93078333       0.52823333       0.33333333 </v>
    <v>       0.73588334       0.59745000       0.44444444 </v>
    <v>       0.80510001       0.40255000       0.55555556 </v>
    <v>       0.73588334       0.47176667       0.66666667 </v>
    <v>       0.93078333       0.40255000       0.77777778 </v>
    <v>       0.86156666       0.59745000       0.88888889 </v>
    <v>       0.93078333       0.52823333       0.66666667 </v>
    <v>       0.73588334       0.59745000       0.77777778 </v>
    <v>       0.80510001       0.40255000       0.88888889 </v>
    <v>       0.73588334       0.80510001       0.00000000 </v>
    <v>       0.93078333       0.73588334       0.11111111 </v>
    <v>       0.86156666       0.93078333       0.22222222 </v>
    <v>       0.93078333       0.86156666       0.00000000 </v>
    <v>       0.73588334       0.93078333       0.11111111 </v>
    <v>       0.80510001       0.73588334       0.22222222 </v>
    <v>       0.73588334       0.80510001       0.33333333 </v>
    <v>       0.93078333       0.73588334       0.44444444 </v>
    <v>       0.86156666       0.93078333       0.55555556 </v>
    <v>       0.93078333       0.86156666       0.33333333 </v>
    <v>       0.73588334       0.93078333       0.44444444 </v>
    <v>       0.80510001       0.73588334       0.55555556 </v>
    <v>       0.73588334       0.80510001       0.66666667 </v>
    <v>       0.93078333       0.73588334       0.77777778 </v>
    <v>       0.86156666       0.93078333       0.88888889 </v>
    <v>       0.93078333       0.86156666       0.66666667 </v>
    <v>       0.73588334       0.93078333       0.77777778 </v>
    <v>       0.80510001       0.73588334       0.88888889 </v>
    <v>       0.16666667       0.00000000       0.16666667 </v>
    <v>       0.16666667       0.16666667       0.27777778 </v>
    <v>       0.00000000       0.16666667       0.05555556 </v>
    <v>       0.16666667       0.00000000       0.50000000 </v>
    <v>       0.16666667       0.16666667       0.61111111 </v>
    <v>       0.00000000       0.16666667       0.38888889 </v>
    <v>       0.16666667       0.00000000       0.83333333 </v>
    <v>       0.16666667       0.16666667       0.94444444 </v>
    <v>       0.00000000       0.16666667       0.72222222 </v>
    <v>       0.16666667       0.33333333       0.16666667 </v>
    <v>       0.16666667       0.50000000       0.27777778 </v>
    <v>       0.00000000       0.50000000       0.05555556 </v>
    <v>       0.16666667       0.33333333       0.50000000 </v>
    <v>       0.16666667       0.50000000       0.61111111 </v>
    <v>       0.00000000       0.50000000       0.38888889 </v>
    <v>       0.16666667       0.33333333       0.83333333 </v>
    <v>       0.16666667       0.50000000       0.94444444 </v>
    <v>       0.00000000       0.50000000       0.72222222 </v>
    <v>       0.16666667       0.66666667       0.16666667 </v>
    <v>       0.16666667       0.83333333       0.27777778 </v>
    <v>       0.00000000       0.83333333       0.05555556 </v>
    <v>       0.16666667       0.66666667       0.50000000 </v>
    <v>       0.16666667       0.83333333       0.61111111 </v>
    <v>       0.00000000       0.83333333       0.38888889 </v>
    <v>       0.16666667       0.66666667       0.83333333 </v>
    <v>       0.16666667       0.83333333       0.94444444 </v>
    <v>       0.00000000       0.83333333       0.72222222 </v>
    <v>       0.50000000       0.00000000       0.16666667 </v>
    <v>       0.50000000       0.16666667       0.27777778 </v>
    <v>       0.33333333       0.16666667       0.05555556 </v>
    <v>       0.50000000       0.00000000       0.50000000 </v>
    <v>       0.50000000       0.16666667       0.61111111 </v>
    <v>       0.33333333       0.16666667       0.38888889 </v>
    <v>       0.50000000       0.00000000       0.83333333 </v>
    <v>       0.50000000       0.16666667       0.94444444 </v>
    <v>       0.33333333       0.16666667       0.72222222 </v>
    <v>       0.50000000       0.33333333       0.16666667 </v>
    <v>       0.50000000       0.50000000       0.27777778 </v>
    <v>       0.33333333       0.50000000       0.05555556 </v>
    <v>       0.50000000       0.33333333       0.50000000 </v>
    <v>       0.50000000       0.50000000       0.61111111 </v>
    <v>       0.33333333       0.50000000       0.38888889 </v>
    <v>       0.50000000       0.33333333       0.83333333 </v>
    <v>       0.50000000       0.50000000       0.94444444 </v>
    <v>       0.33333333       0.50000000       0.72222222 </v>
    <v>       0.50000000       0.66666667       0.16666667 </v>
    <v>       0.50000000       0.83333333       0.27777778 </v>
    <v>       0.33333333       0.83333333       0.05555556 </v>
    <v>       0.50000000       0.66666667       0.50000000 </v>
    <v>       0.50000000       0.83333333       0.61111111 </v>
    <v>       0.33333333       0.83333333       0.38888889 </v>
    <v>       0.50000000       0.66666667       0.83333333 </v>
    <v>       0.50000000       0.83333333       0.94444444 </v>
    <v>       0.33333333       0.83333333       0.72222222 </v>
    <v>       0.83333333       0.00000000       0.16666667 </v>
    <v>       0.83333333       0.16666667       0.27777778 </v>
    <v>       0.66666667       0.16666667       0.05555556 </v>
    <v>       0.83333333       0.00000000       0.50000000 </v>
    <v>       0.83333333       0.16666667       0.61111111 </v>
    <v>       0.66666667       0.16666667       0.38888889 </v>
    <v>       0.83333333       0.00000000       0.83333333 </v>
    <v>       0.83333333       0.16666667       0.94444444 </v>
    <v>       0.66666667       0.16666667       0.72222222 </v>
    <v>       0.83333333       0.33333333       0.16666667 </v>
    <v>       0.83333333       0.50000000       0.27777778 </v>
    <v>       0.66666667       0.50000000       0.05555556 </v>
    <v>       0.83333333       0.33333333       0.50000000 </v>
    <v>       0.83333333       0.50000000       0.61111111 </v>
    <v>       0.66666667       0.50000000       0.38888889 </v>
    <v>       0.83333333       0.33333333       0.83333333 </v>
    <v>       0.83333333       0.50000000       0.94444444 </v>
    <v>       0.66666667       0.50000000       0.72222222 </v>
    <v>       0.83333333       0.66666667       0.16666667 </v>
    <v>       0.83333333       0.83333333       0.27777778 </v>
    <v>       0.66666667       0.83333333       0.05555556 </v>
    <v>       0.83333333       0.66666667       0.50000000 </v>
    <v>       0.83333333       0.83333333       0.61111111 </v>
    <v>       0.66666667       0.83333333       0.38888889 </v>
    <v>       0.83333333       0.66666667       0.83333333 </v>
    <v>       0.83333333       0.83333333       0.94444444 </v>
    <v>       0.66666667       0.83333333       0.72222222 </v>
   </varray>
  </structure>
  <varray name="forces" >
   <v>      -0.00000001      -0.48256226      -0.00000000 </v>
   <v>       0.41791116      -0.24128113      -0.00000000 </v>
   <v>       0.41791117       0.24128113      -0.00000000 </v>
   <v>       0.00000001       0.48256226      -0.00000000 </v>
   <v>      -0.41791116       0.24128113       0.00000000 </v>
   <v>      -0.41791117      -0.24128113       0.00000000 </v>
   <v>      -0.00000001      -0.48256226      -0.00000000 </v>
   <v>       0.41791116      -0.24128113       0.00000000 </v>
   <v>       0.41791117       0.24128113      -0.00000000 </v>
   <v>       0.00000001       0.48256226       0.00000000 </v>
   <v>      -0.41791116       0.24128113      -0.00000000 </v>
   <v>      -0.41791117      -0.24128113      -0.00000000 </v>
   <v>      -0.00000001      -0.48256226      -0.00000000 </v>
   <v>       0.41791116      -0.24128113      -0.00000000 </v>
   <v>       0.41791117       0.24128113      -0.00000000 </v>
   <v>       0.00000001       0.48256226       0.00000000 </v>
   <v>      -0.41791116       0.24128113       0.00000000 </v>
   <v>      -0.41791117      -0.24128113      -0.00000000 </v>
   <v>      -0.00000001      -0.48256226       0.00000000 </v>
   <v>       0.41791116      -0.24128113       0.00000000 </v>
   <v>       0.41791117       0.24128113      -0.00000000 </v>
   <v>       0.00000001       0.48256226      -0.00000000 </v>
   <v>      -0.41791116       0.24128113       0.00000000 </v>
   <v>      -0.41791117      -0.24128113       0.00000000 </v>
   <v>      -0.00000001      -0.48256226       0.00000000 </v>
   <v>       0.41791116      -0.24128113      -0.00000000 </v>
   <v>       0.41791117       0.24128113      -0.00000000 </v>
   <v>       0.00000001       0.48256226       0.00000000 </v>
   <v>      -0.41791116       0.24128113       0.00000000 </v>
   <v>      -0.41791117      -0.24128113      -0.00000000 </v>
   <v>      -0.00000001      -0.48256226      -0.00000000 </v>
   <v>       0.41791116      -0.24128113      -0.00000000 </v>
   <v>       0.41791117       0.24128113       0.00000000 </v>
   <v>       0.00000001       0.48256226       0.00000000 </v>
   <v>      -0.41791116       0.24128113      -0.00000000 </v>
   <v>      -0.41791117      -0.24128113       0.00000000 </v>
   <v>      -0.00000001      -0.48256226       0.00000000 </v>
   <v>       0.41791116      -0.24128113       0.00000000 </v>
   <v>       0.41791117       0.24128113       0.00000000 </v>
   <v>       0.00000001       0.48256226       0.00000000 </v>
   <v>      -0.41791116       0.24128113       0.00000000 </v>
   <v>      -0.41791117      -0.24128113       0.00000000 </v>
   <v>      -0.00000001      -0.48256226       0.00000000 </v>
   <v>       0.41791116      -0.24128113      -0.00000000 </v>
   <v>       0.41791117       0.24128113      -0.00000000 </v>
   <v>       0.00000001       0.48256226      -0.00000000 </v>
   <v>      -0.41791116       0.24128113       0.00000000 </v>
   <v>      -0.41791117      -0.24128113      -0.00000000 </v>
   <v>      -0.00000001      -0.48256226       0.00000000 </v>
   <v>       0.41791116      -0.24128113      -0.00000000 </v>
   <v>       0.41791117       0.24128113      -0.00000000 </v>
   <v>       0.00000001       0.48256226       0.00000000 </v>
   <v>      -0.41791116       0.24128113      -0.00000000 </v>
   <v>      -0.41791117      -0.24128113       0.00000000 </v>
   <v>      -0.00000001      -0.48256226      -0.00000000 </v>
   <v>       0.41791116      -0.24128113      -0.00000000 </v>
   <v>       0.41791117       0.24128113      -0.00000000 </v>
   <v>       0.00000001       0.48256226      -0.00000000 </v>
   <v>      -0.41791116       0.24128113       0.00000000 </v>
   <v>      -0.41791117      -0.24128113       0.00000000 </v>
   <v>      -0.00000001      -0.48256226      -0.00000000 </v>
   <v>       0.41791116      -0.24128113       0.00000000 </v>
   <v>       0.41791117       0.24128113      -0.00000000 </v>
   <v>       0.00000001       0.48256226       0.00000000 </v>
   <v>      -0.41791116       0.24128113      -0.00000000 </v>
   <v>      -0.41791117      -0.24128113       0.00000000 </v>
   <v>      -0.00000001      -0.48256226       0.00000000 </v>
   <v>       0.41791116      -0.24128113      -0.00000000 </v>
   <v>       0.41791117       0.24128113      -0.00000000 </v>
   <v>       0.00000001       0.48256226      -0.00000000 </v>
   <v>      -0.41791116       0.24128113       0.00000000 </v>
   <v>      -0.41791117      -0.24128113       0.00000000 </v>
   <v>      -0.00000001      -0.48256226       0.00000000 </v>
   <v>       0.41791116      -0.24128113      -0.00000000 </v>
   <v>       0.41791117       0.24128113      -0.00000000 </v>
   <v>       0.00000001       0.48256226       0.00000000 </v>
   <v>      -0.41791116       0.24128113       0.00000000 </v>
   <v>      -0.41791117      -0.24128113       0.00000000 </v>
   <v>      -0.00000001      -0.48256226      -0.00000000 </v>
   <v>       0.41791116      -0.24128113      -0.00000000 </v>
   <v>       0.41791117       0.24128113       0.00000000 </v>
   <v>       0.00000001       0.48256226       0.00000000 </v>
   <v>      -0.41791116       0.24128113       0.00000000 </v>
   <v>      -0.41791117      -0.24128113      -0.00000000 </v>
   <v>      -0.00000001      -0.48256226       0.00000000 </v>
   <v>       0.41791116      -0.24128113      -0.00000000 </v>
   <v>       0.41791117       0.24128113       0.00000000 </v>
   <v>       0.00000001       0.48256226      -0.00000000 </v>
   <v>      -0.41791116       0.24128113      -0.00000000 </v>
   <v>      -0.41791117      -0.24128113       0.00000000 </v>
   <v>      -0.00000001      -0.48256226       0.00000000 </v>
   <v>       0.41791116      -0.24128113       0.00000000 </v>
   <v>       0.41791117       0.24128113      -0.00000000 </v>
   <v>       0.00000001       0.48256226      -0.00000000 </v>
   <v>      -0.41791116       0.24128113       0.00000000 </v>
   <v>      -0.41791117      -0.24128113       0.00000000 </v>
   <v>      -0.00000001      -0.48256226       0.00000000 </v>
   <v>       0.41791116      -0.24128113      -0.00000000 </v>
   <v>       0.41791117       0.24128113      -0.00000000 </v>
   <v>       0.00000001       0.48256226      -0.00000000 </v>
   <v>      -0.41791116       0.24128113       0.00000000 </v>
   <v>      -0.41791117      -0.24128113      -0.00000000 </v>
   <v>      -0.00000001      -0.48256226       0.00000000 </v>
   <v>       0.41791116      -0.24128113      -0.00000000 </v>
   <v>       0.41791117       0.24128113      -0.00000000 </v>
   <v>       0.00000001       0.48256226      -0.00000000 </v>
   <v>      -0.41791116       0.24128113       0.00000000 </v>
   <v>      -0.41791117      -0.24128113       0.00000000 </v>
   <v>      -0.00000001      -0.48256226      -0.00000000 </v>
   <v>       0.41791116      -0.24128113      -0.00000000 </v>
   <v>       0.41791117       0.24128113      -0.00000000 </v>
   <v>       0.00000001       0.48256226       0.00000000 </v>
   <v>      -0.41791116       0.24128113       0.00000000 </v>
   <v>      -0.41791117      -0.24128113       0.00000000 </v>
   <v>      -0.00000001      -0.48256226       0.00000000 </v>
   <v>       0.41791116      -0.24128113      -0.00000000 </v>
   <v>       0.41791117       0.24128113       0.00000000 </v>
   <v>       0.00000001       0.48256226      -0.00000000 </v>
   <v>      -0.41791116       0.24128113      -0.00000000 </v>
   <v>      -0.41791117      -0.24128113      -0.00000000 </v>
   <v>      -0.00000001      -0.48256226      -0.00000000 </v>
   <v>       0.41791116      -0.24128113      -0.00000000 </v>
   <v>       0.41791117       0.24128113      -0.00000000 </v>
   <v>       0.00000001       0.48256226       0.00000000 </v>
   <v>      -0.41791116       0.24128113       0.00000000 </v>
   <v>      -0.41791117      -0.24128113       0.00000000 </v>
   <v>      -0.00000001      -0.48256226       0.00000000 </v>
   <v>       0.41791116      -0.24128113      -0.00000000 </v>
   <v>       0.41791117       0.24128113      -0.00000000 </v>
   <v>       0.00000001       0.48256226       0.00000000 </v>
   <v>      -0.41791116       0.24128113       0.00000000 </v>
   <v>      -0.41791117      -0.24128113       0.00000000 </v>
   <v>      -0.00000001      -0.48256226      -0.00000000 </v>
   <v>       0.41791116      -0.24128113      -0.00000000 </v>
   <v>       0.41791117       0.24128113       0.00000000 </v>
   <v>       0.00000001       0.48256226       0.00000000 </v>
   <v>      -0.41791116       0.24128113       0.00000000 </v>
   <v>      -0.41791117      -0.24128113      -0.00000000 </v>
   <v>      -0.00000001      -0.48256226      -0.00000000 </v>
   <v>       0.41791116      -0.24128113      -0.00000000 </v>
   <v>       0.41791117       0.24128113       0.00000000 </v>
   <v>       0.00000001       0.48256226      -0.00000000 </v>
   <v>      -0.41791116       0.24128113      -0.00000000 </v>
   <v>      -0.41791117      -0.24128113       0.00000000 </v>
   <v>      -0.00000001      -0.48256226      -0.00000000 </v>
   <v>       0.41791116      -0.24128113       0.00000000 </v>
   <v>       0.41791117       0.24128113       0.00000000 </v>
   <v>       0.00000001       0.48256226       0.00000000 </v>
   <v>      -0.41791116       0.24128113       0.00000000 </v>
   <v>      -0.41791117      -0.24128113       0.00000000 </v>
   <v>      -0.00000001      -0.48256226       0.00000000 </v>
   <v>       0.41791116      -0.24128113      -0.00000000 </v>
   <v>       0.41791117       0.24128113      -0.00000000 </v>
   <v>       0.00000001       0.48256226       0.00000000 </v>
   <v>      -0.41791116       0.24128113       0.00000000 </v>
   <v>      -0.41791117      -0.24128113      -0.00000000 </v>
   <v>      -0.00000001      -0.48256226       0.00000000 </v>
   <v>       0.41791116      -0.24128113      -0.00000000 </v>
   <v>       0.41791117       0.24128113      -0.00000000 </v>
   <v>       0.00000001       0.48256226      -0.00000000 </v>
   <v>      -0.41791116       0.24128113       0.00000000 </v>
   <v>      -0.41791117      -0.24128113       0.00000000 </v>
   <v>      -0.00000000       0.00000000      -0.00000000 </v>
   <v>      -0.00000000       0.00000000       0.00000000 </v>
   <v>      -0.00000000       0.00000000       0.00000000 </v>
   <v>      -0.00000000       0.00000000      -0.00000000 </v>
   <v>      -0.00000000       0.00000000       0.00000000 </v>
   <v>      -0.00000000       0.00000000       0.00000000 </v>
   <v>      -0.00000000       0.00000000      -0.00000000 </v>
   <v>      -0.00000000       0.00000000      -0.00000000 </v>
   <v>      -0.00000000       0.00000000       0.00000000 </v>
   <v>      -0.00000000       0.00000000      -0.00000000 </v>
   <v>      -0.00000000       0.00000000      -0.00000000 </v>
   <v>      -0.00000000       0.00000000       0.00000000 </v>
[...]
       <r>     3.9707     0.0000  1296.0000 </r>
       <r>     4.0812     0.0000  1296.0000 </r>
       <r>     4.1917     0.0000  1296.0000 </r>
       <r>     4.3021     0.0000  1296.0000 </r>
       <r>     4.4126     0.0000  1296.0000 </r>
       <r>     4.5230     0.0000  1296.0000 </r>
       <r>     4.6335     0.0000  1296.0000 </r>
       <r>     4.7440     0.0000  1296.0000 </r>
       <r>     4.8544     0.0000  1296.0000 </r>
       <r>     4.9649     0.0000  1296.0000 </r>
       <r>     5.0753     0.0000  1296.0000 </r>
       <r>     5.1858     0.0000  1296.0000 </r>
       <r>     5.2963     0.0000  1296.0000 </r>
       <r>     5.4067     0.0000  1296.0000 </r>
       <r>     5.5172     0.0000  1296.0000 </r>
       <r>     5.6276     0.0000  1296.0000 </r>
       <r>     5.7381     0.0000  1296.0000 </r>
       <r>     5.8486     0.0000  1296.0000 </r>
       <r>     5.9590     0.0000  1296.0000 </r>
       <r>     6.0695     0.0000  1296.0000 </r>
       <r>     6.1800     0.0000  1296.0000 </r>
       <r>     6.2904     0.0000  1296.0000 </r>
       <r>     6.4009     0.0000  1296.0000 </r>
       <r>     6.5113     0.0000  1296.0000 </r>
       <r>     6.6218     0.0000  1296.0000 </r>
       <r>     6.7323     0.1044  1296.0115 </r>
       <r>     6.8427     1.6904  1296.1983 </r>
       <r>     6.9532     3.5217  1296.5873 </r>
       <r>     7.0636     4.8469  1297.1227 </r>
       <r>     7.1741     6.0634  1297.7924 </r>
       <r>     7.2846     7.0293  1298.5689 </r>
       <r>     7.3950     8.0753  1299.4609 </r>
       <r>     7.5055     9.4420  1300.5039 </r>
       <r>     7.6159    10.1670  1301.6269 </r>
       <r>     7.7264    11.8399  1302.9348 </r>
       <r>     7.8369    12.5905  1304.3256 </r>
       <r>     7.9473    13.9124  1305.8623 </r>
       <r>     8.0578    15.0746  1307.5275 </r>
       <r>     8.1683    16.7719  1309.3801 </r>
       <r>     8.2787    18.3887  1311.4114 </r>
       <r>     8.3892    19.3400  1313.5477 </r>
       <r>     8.4996    21.8175  1315.9577 </r>
       <r>     8.6101    23.6062  1318.5652 </r>
       <r>     8.7206    26.9501  1321.5422 </r>
       <r>     8.8310    29.5845  1324.8101 </r>
       <r>     8.9415    35.1046  1328.6878 </r>
       <r>     9.0519    32.8618  1332.3178 </r>
       <r>     9.1624    32.2259  1335.8775 </r>
       <r>     9.2729    32.3204  1339.4476 </r>
       <r>     9.3833    31.0971  1342.8827 </r>
       <r>     9.4938    31.0139  1346.3085 </r>
       <r>     9.6043    35.0788  1350.1833 </r>
       <r>     9.7147    44.2848  1355.0751 </r>
       <r>     9.8252    74.0216  1363.2516 </r>
       <r>     9.9356   118.8140  1376.3759 </r>
       <r>    10.0461   165.5562  1394.6635 </r>
       <r>    10.1566   139.9526  1410.1228 </r>
       <r>    10.2670   121.2375  1423.5148 </r>
       <r>    10.3775   130.1598  1437.8924 </r>
       <r>    10.4879   168.9256  1456.5521 </r>
       <r>    10.5984   249.1734  1484.0761 </r>
       <r>    10.7089   212.2895  1507.5259 </r>
       <r>    10.8193   158.9686  1525.0857 </r>
       <r>    10.9298   111.3212  1537.3824 </r>
       <r>    11.0402   107.4020  1549.2462 </r>
       <r>    11.1507   100.8675  1560.3881 </r>
       <r>    11.2612    59.5046  1566.9611 </r>
       <r>    11.3716     9.3790  1567.9971 </r>
       <r>    11.4821     0.0265  1568.0000 </r>
       <r>    11.5926     0.0000  1568.0000 </r>
       <r>    11.7030     0.0000  1568.0000 </r>
       <r>    11.8135     0.0000  1568.0000 </r>
       <r>    11.9239     0.0000  1568.0000 </r>
       <r>    12.0344     0.0000  1568.0000 </r>
       <r>    12.1449     0.0000  1568.0000 </r>
       <r>    12.2553     0.0000  1568.0000 </r>
       <r>    12.3658     0.0000  1568.0000 </r>
       <r>    12.4762     0.0000  1568.0000 </r>
       <r>    12.5867     0.0000  1568.0000 </r>
       <r>    12.6972     0.0000  1568.0000 </r>
       <r>    12.8076     0.0000  1568.0000 </r>
      </set>
     </set>
    </array>
   </total>
  </dos>
 </calculation>
 <structure name="finalpos" >
  <crystal>
   <varray name="basis" >
    <v>      14.99190030       0.00000000       0.00000000 </v>
    <v>      -7.49594983      12.98336669       0.00000000 </v>
    <v>       0.00000030       0.00000052      16.37160030 </v>
   </varray>
   <i name="volume">   3186.65568995 </i>
   <varray name="rec_basis" >
    <v>       0.06670268       0.03851081      -0.00000000 </v>
    <v>       0.00000000       0.07702162      -0.00000000 </v>
    <v>       0.00000000       0.00000000       0.06108138 </v>
   </varray>
  </crystal>
  <varray name="positions" >
   <v>       0.06921667       0.13843334       0.00000000 </v>
   <v>       0.26411666       0.06921667       0.11111111 </v>
   <v>       0.19489999       0.26411666       0.22222222 </v>
   <v>       0.26411666       0.19489999       0.00000000 </v>
   <v>       0.06921667       0.26411666       0.11111111 </v>
   <v>       0.13843334       0.06921667       0.22222222 </v>
   <v>       0.06921667       0.13843334       0.33333333 </v>
   <v>       0.26411666       0.06921667       0.44444444 </v>
   <v>       0.19489999       0.26411666       0.55555556 </v>
   <v>       0.26411666       0.19489999       0.33333333 </v>
   <v>       0.06921667       0.26411666       0.44444444 </v>
   <v>       0.13843334       0.06921667       0.55555556 </v>
   <v>       0.06921667       0.13843334       0.66666667 </v>
   <v>       0.26411666       0.06921667       0.77777778 </v>
   <v>       0.19489999       0.26411666       0.88888889 </v>
   <v>       0.26411666       0.19489999       0.66666667 </v>
   <v>       0.06921667       0.26411666       0.77777778 </v>
   <v>       0.13843334       0.06921667       0.88888889 </v>
   <v>       0.06921667       0.47176667       0.00000000 </v>
   <v>       0.26411666       0.40255000       0.11111111 </v>
   <v>       0.19489999       0.59745000       0.22222222 </v>
   <v>       0.26411666       0.52823333       0.00000000 </v>
   <v>       0.06921667       0.59745000       0.11111111 </v>
   <v>       0.13843334       0.40255000       0.22222222 </v>
   <v>       0.06921667       0.47176667       0.33333333 </v>
   <v>       0.26411666       0.40255000       0.44444444 </v>
   <v>       0.19489999       0.59745000       0.55555556 </v>
   <v>       0.26411666       0.52823333       0.33333333 </v>
   <v>       0.06921667       0.59745000       0.44444444 </v>
   <v>       0.13843334       0.40255000       0.55555556 </v>
   <v>       0.06921667       0.47176667       0.66666667 </v>
   <v>       0.26411666       0.40255000       0.77777778 </v>
   <v>       0.19489999       0.59745000       0.88888889 </v>
   <v>       0.26411666       0.52823333       0.66666667 </v>
   <v>       0.06921667       0.59745000       0.77777778 </v>
   <v>       0.13843334       0.40255000       0.88888889 </v>
   <v>       0.06921667       0.80510001       0.00000000 </v>
   <v>       0.26411666       0.73588334       0.11111111 </v>
   <v>       0.19489999       0.93078333       0.22222222 </v>
   <v>       0.26411666       0.86156666       0.00000000 </v>
   <v>       0.06921667       0.93078333       0.11111111 </v>
   <v>       0.13843334       0.73588334       0.22222222 </v>
   <v>       0.06921667       0.80510001       0.33333333 </v>
   <v>       0.26411666       0.73588334       0.44444444 </v>
   <v>       0.19489999       0.93078333       0.55555556 </v>
   <v>       0.26411666       0.86156666       0.33333333 </v>
   <v>       0.06921667       0.93078333       0.44444444 </v>
   <v>       0.13843334       0.73588334       0.55555556 </v>
   <v>       0.06921667       0.80510001       0.66666667 </v>
   <v>       0.26411666       0.73588334       0.77777778 </v>
   <v>       0.19489999       0.93078333       0.88888889 </v>
   <v>       0.26411666       0.86156666       0.66666667 </v>
   <v>       0.06921667       0.93078333       0.77777778 </v>
   <v>       0.13843334       0.73588334       0.88888889 </v>
   <v>       0.40255000       0.13843334       0.00000000 </v>
   <v>       0.59745000       0.06921667       0.11111111 </v>
   <v>       0.52823333       0.26411666       0.22222222 </v>
   <v>       0.59745000       0.19489999       0.00000000 </v>
   <v>       0.40255000       0.26411666       0.11111111 </v>
   <v>       0.47176667       0.06921667       0.22222222 </v>
   <v>       0.40255000       0.13843334       0.33333333 </v>
   <v>       0.59745000       0.06921667       0.44444444 </v>
   <v>       0.52823333       0.26411666       0.55555556 </v>
   <v>       0.59745000       0.19489999       0.33333333 </v>
   <v>       0.40255000       0.26411666       0.44444444 </v>
   <v>       0.47176667       0.06921667       0.55555556 </v>
   <v>       0.40255000       0.13843334       0.66666667 </v>
   <v>       0.59745000       0.06921667       0.77777778 </v>
   <v>       0.52823333       0.26411666       0.88888889 </v>
   <v>       0.59745000       0.19489999       0.66666667 </v>
   <v>       0.40255000       0.26411666       0.77777778 </v>
   <v>       0.47176667       0.06921667       0.88888889 </v>
   <v>       0.40255000       0.47176667       0.00000000 </v>
   <v>       0.59745000       0.40255000       0.11111111 </v>
   <v>       0.52823333       0.59745000       0.22222222 </v>
   <v>       0.59745000       0.52823333       0.00000000 </v>
   <v>       0.40255000       0.59745000       0.11111111 </v>
   <v>       0.47176667       0.40255000       0.22222222 </v>
   <v>       0.40255000       0.47176667       0.33333333 </v>
   <v>       0.59745000       0.40255000       0.44444444 </v>
   <v>       0.52823333       0.59745000       0.55555556 </v>
   <v>       0.59745000       0.52823333       0.33333333 </v>
   <v>       0.40255000       0.59745000       0.44444444 </v>
   <v>       0.47176667       0.40255000       0.55555556 </v>
   <v>       0.40255000       0.47176667       0.66666667 </v>
   <v>       0.59745000       0.40255000       0.77777778 </v>
   <v>       0.52823333       0.59745000       0.88888889 </v>
   <v>       0.59745000       0.52823333       0.66666667 </v>
   <v>       0.40255000       0.59745000       0.77777778 </v>
   <v>       0.47176667       0.40255000       0.88888889 </v>
   <v>       0.40255000       0.80510001       0.00000000 </v>
   <v>       0.59745000       0.73588334       0.11111111 </v>
   <v>       0.52823333       0.93078333       0.22222222 </v>
   <v>       0.59745000       0.86156666       0.00000000 </v>
   <v>       0.40255000       0.93078333       0.11111111 </v>
   <v>       0.47176667       0.73588334       0.22222222 </v>
   <v>       0.40255000       0.80510001       0.33333333 </v>
   <v>       0.59745000       0.73588334       0.44444444 </v>
   <v>       0.52823333       0.93078333       0.55555556 </v>
   <v>       0.59745000       0.86156666       0.33333333 </v>
   <v>       0.40255000       0.93078333       0.44444444 </v>
   <v>       0.47176667       0.73588334       0.55555556 </v>
   <v>       0.40255000       0.80510001       0.66666667 </v>
   <v>       0.59745000       0.73588334       0.77777778 </v>
   <v>       0.52823333       0.93078333       0.88888889 </v>
   <v>       0.59745000       0.86156666       0.66666667 </v>
   <v>       0.40255000       0.93078333       0.77777778 </v>
   <v>       0.47176667       0.73588334       0.88888889 </v>
   <v>       0.73588334       0.13843334       0.00000000 </v>
   <v>       0.93078333       0.06921667       0.11111111 </v>
   <v>       0.86156666       0.26411666       0.22222222 </v>
   <v>       0.93078333       0.19489999       0.00000000 </v>
   <v>       0.73588334       0.26411666       0.11111111 </v>
   <v>       0.80510001       0.06921667       0.22222222 </v>
   <v>       0.73588334       0.13843334       0.33333333 </v>
   <v>       0.93078333       0.06921667       0.44444444 </v>
   <v>       0.86156666       0.26411666       0.55555556 </v>
   <v>       0.93078333       0.19489999       0.33333333 </v>
   <v>       0.73588334       0.26411666       0.44444444 </v>
   <v>       0.80510001       0.06921667       0.55555556 </v>
   <v>       0.73588334       0.13843334       0.66666667 </v>
   <v>       0.93078333       0.06921667       0.77777778 </v>
   <v>       0.86156666       0.26411666       0.88888889 </v>
   <v>       0.93078333       0.19489999       0.66666667 </v>
   <v>       0.73588334       0.26411666       0.77777778 </v>
   <v>       0.80510001       0.06921667       0.88888889 </v>
   <v>       0.73588334       0.47176667       0.00000000 </v>
   <v>       0.93078333       0.40255000       0.11111111 </v>
   <v>       0.86156666       0.59745000       0.22222222 </v>
   <v>       0.93078333       0.52823333       0.00000000 </v>
   <v>       0.73588334       0.59745000       0.11111111 </v>
   <v>       0.80510001       0.40255000       0.22222222 </v>
   <v>       0.73588334       0.47176667       0.33333333 </v>
   <v>       0.93078333       0.40255000       0.44444444 </v>
   <v>       0.86156666       0.59745000       0.55555556 </v>
   <v>       0.93078333       0.52823333       0.33333333 </v>
   <v>       0.73588334       0.59745000       0.44444444 </v>
   <v>       0.80510001       0.40255000       0.55555556 </v>
   <v>       0.73588334       0.47176667       0.66666667 </v>
   <v>       0.93078333       0.40255000       0.77777778 </v>
   <v>       0.86156666       0.59745000       0.88888889 </v>
   <v>       0.93078333       0.52823333       0.66666667 </v>
   <v>       0.73588334       0.59745000       0.77777778 </v>
   <v>       0.80510001       0.40255000       0.88888889 </v>
   <v>       0.73588334       0.80510001       0.00000000 </v>
   <v>       0.93078333       0.73588334       0.11111111 </v>
   <v>       0.86156666       0.93078333       0.22222222 </v>
   <v>       0.93078333       0.86156666       0.00000000 </v>
   <v>       0.73588334       0.93078333       0.11111111 </v>
   <v>       0.80510001       0.73588334       0.22222222 </v>
   <v>       0.73588334       0.80510001       0.33333333 </v>
   <v>       0.93078333       0.73588334       0.44444444 </v>
   <v>       0.86156666       0.93078333       0.55555556 </v>
   <v>       0.93078333       0.86156666       0.33333333 </v>
   <v>       0.73588334       0.93078333       0.44444444 </v>
   <v>       0.80510001       0.73588334       0.55555556 </v>
   <v>       0.73588334       0.80510001       0.66666667 </v>
   <v>       0.93078333       0.73588334       0.77777778 </v>
   <v>       0.86156666       0.93078333       0.88888889 </v>
   <v>       0.93078333       0.86156666       0.66666667 </v>
   <v>       0.73588334       0.93078333       0.77777778 </v>
   <v>       0.80510001       0.73588334       0.88888889 </v>
   <v>       0.16666667       0.00000000       0.16666667 </v>
   <v>       0.16666667       0.16666667       0.27777778 </v>
   <v>       0.00000000       0.16666667       0.05555556 </v>
   <v>       0.16666667       0.00000000       0.50000000 </v>
   <v>       0.16666667       0.16666667       0.61111111 </v>
   <v>       0.00000000       0.16666667       0.38888889 </v>
   <v>       0.16666667       0.00000000       0.83333333 </v>
   <v>       0.16666667       0.16666667       0.94444444 </v>
   <v>       0.00000000       0.16666667       0.72222222 </v>
   <v>       0.16666667       0.33333333       0.16666667 </v>
   <v>       0.16666667       0.50000000       0.27777778 </v>
   <v>       0.00000000       0.50000000       0.05555556 </v>
   <v>       0.16666667       0.33333333       0.50000000 </v>
   <v>       0.16666667       0.50000000       0.61111111 </v>
   <v>       0.00000000       0.50000000       0.38888889 </v>
   <v>       0.16666667       0.33333333       0.83333333 </v>
   <v>       0.16666667       0.50000000       0.94444444 </v>
   <v>       0.00000000       0.50000000       0.72222222 </v>
   <v>       0.16666667       0.66666667       0.16666667 </v>
   <v>       0.16666667       0.83333333       0.27777778 </v>
   <v>       0.00000000       0.83333333       0.05555556 </v>
   <v>       0.16666667       0.66666667       0.50000000 </v>
   <v>       0.16666667       0.83333333       0.61111111 </v>
   <v>       0.00000000       0.83333333       0.38888889 </v>
   <v>       0.16666667       0.66666667       0.83333333 </v>
   <v>       0.16666667       0.83333333       0.94444444 </v>
   <v>       0.00000000       0.83333333       0.72222222 </v>
   <v>       0.50000000       0.00000000       0.16666667 </v>
   <v>       0.50000000       0.16666667       0.27777778 </v>
   <v>       0.33333333       0.16666667       0.05555556 </v>
   <v>       0.50000000       0.00000000       0.50000000 </v>
   <v>       0.50000000       0.16666667       0.61111111 </v>
   <v>       0.33333333       0.16666667       0.38888889 </v>
   <v>       0.50000000       0.00000000       0.83333333 </v>
   <v>       0.50000000       0.16666667       0.94444444 </v>
   <v>       0.33333333       0.16666667       0.72222222 </v>
   <v>       0.50000000       0.33333333       0.16666667 </v>
   <v>       0.50000000       0.50000000       0.27777778 </v>
   <v>       0.33333333       0.50000000       0.05555556 </v>
   <v>       0.50000000       0.33333333       0.50000000 </v>
   <v>       0.50000000       0.50000000       0.61111111 </v>
   <v>       0.33333333       0.50000000       0.38888889 </v>
   <v>       0.50000000       0.33333333       0.83333333 </v>
   <v>       0.50000000       0.50000000       0.94444444 </v>
   <v>       0.33333333       0.50000000       0.72222222 </v>
   <v>       0.50000000       0.66666667       0.16666667 </v>
   <v>       0.50000000       0.83333333       0.27777778 </v>
   <v>       0.33333333       0.83333333       0.05555556 </v>
   <v>       0.50000000       0.66666667       0.50000000 </v>
   <v>       0.50000000       0.83333333       0.61111111 </v>
   <v>       0.33333333       0.83333333       0.38888889 </v>
   <v>       0.50000000       0.66666667       0.83333333 </v>
   <v>       0.50000000       0.83333333       0.94444444 </v>
   <v>       0.33333333       0.83333333       0.72222222 </v>
   <v>       0.83333333       0.00000000       0.16666667 </v>
   <v>       0.83333333       0.16666667       0.27777778 </v>
   <v>       0.66666667       0.16666667       0.05555556 </v>
   <v>       0.83333333       0.00000000       0.50000000 </v>
   <v>       0.83333333       0.16666667       0.61111111 </v>
   <v>       0.66666667       0.16666667       0.38888889 </v>
   <v>       0.83333333       0.00000000       0.83333333 </v>
   <v>       0.83333333       0.16666667       0.94444444 </v>
   <v>       0.66666667       0.16666667       0.72222222 </v>
   <v>       0.83333333       0.33333333       0.16666667 </v>
   <v>       0.83333333       0.50000000       0.27777778 </v>
   <v>       0.66666667       0.50000000       0.05555556 </v>
   <v>       0.83333333       0.33333333       0.50000000 </v>
   <v>       0.83333333       0.50000000       0.61111111 </v>
   <v>       0.66666667       0.50000000       0.38888889 </v>
   <v>       0.83333333       0.33333333       0.83333333 </v>
   <v>       0.83333333       0.50000000       0.94444444 </v>
   <v>       0.66666667       0.50000000       0.72222222 </v>
   <v>       0.83333333       0.66666667       0.16666667 </v>
   <v>       0.83333333       0.83333333       0.27777778 </v>
   <v>       0.66666667       0.83333333       0.05555556 </v>
   <v>       0.83333333       0.66666667       0.50000000 </v>
   <v>       0.83333333       0.83333333       0.61111111 </v>
   <v>       0.66666667       0.83333333       0.38888889 </v>
   <v>       0.83333333       0.66666667       0.83333333 </v>
   <v>       0.83333333       0.83333333       0.94444444 </v>
   <v>       0.66666667       0.83333333       0.72222222 </v>
  </varray>
 </structure>
</modeling>
