 243 243   0   0
  0.1311304E+02  0.1499160E-08  0.1499160E-08  0.1637130E-08  0.5000000E-15
   4000.00000000000     
  CAR 
 (Si O2)81  (P1) ~ 3x3x3Supersel (VASP)  
     11.80738009    -21.51010899  301      2.93659862      1.00000000
    -21.510  0.0000E+00  0.0000E+00
    -21.399  0.0000E+00  0.0000E+00
    -21.288  0.0000E+00  0.0000E+00
    -21.177  0.0000E+00  0.0000E+00
    -21.066  0.0000E+00  0.0000E+00
    -20.955  0.0000E+00  0.0000E+00
    -20.844  0.0000E+00  0.0000E+00
    -20.733  0.0000E+00  0.0000E+00
    -20.622  0.0000E+00  0.0000E+00
    -20.511  0.0000E+00  0.0000E+00
    -20.400  0.0000E+00  0.0000E+00
    -20.288  0.1822E-14  0.2002E-15
    -20.177  0.2866E-05  0.3161E-06
    -20.066  0.4279E+00  0.4733E-01
    -19.955  0.1702E+02  0.1930E+01
    -19.844  0.9110E+01  0.2932E+01
    -19.733  0.9078E+01  0.3928E+01
    -19.622  0.1046E+02  0.5079E+01
    -19.511  0.1294E+02  0.6503E+01
    -19.400  0.1566E+02  0.8228E+01
    -19.289  0.1890E+02  0.1031E+02
    -19.178  0.2218E+02  0.1275E+02
    -19.067  0.2566E+02  0.1558E+02
    -18.956  0.2841E+02  0.1871E+02
    -18.845  0.3110E+02  0.2214E+02
    -18.734  0.3462E+02  0.2596E+02
    -18.623  0.3771E+02  0.3012E+02
    -18.512  0.4136E+02  0.3469E+02
    -18.400  0.4460E+02  0.3961E+02
    -18.289  0.4820E+02  0.4493E+02
    -18.178  0.5079E+02  0.5054E+02
    -18.067  0.5477E+02  0.5659E+02
    -17.956  0.5784E+02  0.6299E+02
    -17.845  0.6169E+02  0.6980E+02
    -17.734  0.6536E+02  0.7703E+02
    -17.623  0.6741E+02  0.8448E+02
    -17.512  0.7088E+02  0.9232E+02
    -17.401  0.7325E+02  0.1004E+03
    -17.290  0.7438E+02  0.1086E+03
    -17.179  0.7720E+02  0.1172E+03
    -17.068  0.7915E+02  0.1259E+03
    -16.957  0.7884E+02  0.1347E+03
    -16.846  0.8152E+02  0.1437E+03
    -16.735  0.8417E+02  0.1530E+03
    -16.624  0.8281E+02  0.1622E+03
    -16.512  0.8305E+02  0.1714E+03
    -16.401  0.8497E+02  0.1808E+03
    -16.290  0.8571E+02  0.1902E+03
    -16.179  0.8394E+02  0.1995E+03
    -16.068  0.8240E+02  0.2087E+03
    -15.957  0.8050E+02  0.2176E+03
    -15.846  0.7789E+02  0.2262E+03
    -15.735  0.7528E+02  0.2346E+03
    -15.624  0.7526E+02  0.2429E+03
    -15.513  0.7231E+02  0.2509E+03
    -15.402  0.6800E+02  0.2584E+03
    -15.291  0.6293E+02  0.2654E+03
    -15.180  0.5864E+02  0.2719E+03
    -15.069  0.5530E+02  0.2781E+03
    -14.958  0.5070E+02  0.2837E+03
    -14.847  0.4757E+02  0.2890E+03
    -14.736  0.4384E+02  0.2939E+03
    -14.624  0.3818E+02  0.2981E+03
    -14.513  0.3487E+02  0.3020E+03
    -14.402  0.3091E+02  0.3054E+03
    -14.291  0.2695E+02  0.3084E+03
    -14.180  0.2332E+02  0.3110E+03
    -14.069  0.2132E+02  0.3134E+03
    -13.958  0.1675E+02  0.3153E+03
    -13.847  0.1382E+02  0.3168E+03
    -13.736  0.1162E+02  0.3181E+03
    -13.625  0.9949E+01  0.3192E+03
    -13.514  0.8459E+01  0.3201E+03
    -13.403  0.6708E+01  0.3209E+03
    -13.292  0.5613E+01  0.3215E+03
    -13.181  0.5078E+01  0.3221E+03
    -13.070  0.4309E+01  0.3226E+03
    -12.959  0.3360E+01  0.3229E+03
    -12.848  0.2411E+01  0.3232E+03
    -12.737  0.1780E+01  0.3234E+03
    -12.625  0.1434E+01  0.3236E+03
    -12.514  0.1165E+01  0.3237E+03
    -12.403  0.7411E+00  0.3238E+03
    -12.292  0.4876E+00  0.3238E+03
    -12.181  0.4042E+00  0.3239E+03
    -12.070  0.2086E+00  0.3239E+03
    -11.959  0.1785E+00  0.3239E+03
    -11.848  0.2198E+00  0.3240E+03
    -11.737  0.1339E+00  0.3240E+03
    -11.626  0.1077E+00  0.3240E+03
    -11.515  0.8395E-01  0.3240E+03
    -11.404  0.7286E-01  0.3240E+03
    -11.293  0.1455E-02  0.3240E+03
    -11.182  0.6870E-08  0.3240E+03
    -11.071  0.0000E+00  0.3240E+03
    -10.960  0.0000E+00  0.3240E+03
    -10.849  0.0000E+00  0.3240E+03
    -10.737  0.0000E+00  0.3240E+03
    -10.626  0.0000E+00  0.3240E+03
    -10.515  0.0000E+00  0.3240E+03
    -10.404  0.0000E+00  0.3240E+03
    -10.293  0.0000E+00  0.3240E+03
    -10.182  0.0000E+00  0.3240E+03
    -10.071  0.0000E+00  0.3240E+03
     -9.960  0.0000E+00  0.3240E+03
     -9.849  0.1955E-09  0.3240E+03
     -9.738  0.1340E-03  0.3240E+03
     -9.627  0.2715E-01  0.3240E+03
     -9.516  0.8796E-01  0.3240E+03
     -9.405  0.9767E-01  0.3240E+03
     -9.294  0.5152E+00  0.3241E+03
     -9.183  0.1619E+01  0.3243E+03
     -9.072  0.3159E+01  0.3246E+03
     -8.961  0.4378E+01  0.3251E+03
     -8.849  0.6509E+01  0.3258E+03
     -8.738  0.8585E+01  0.3268E+03
     -8.627  0.9655E+01  0.3278E+03
     -8.516  0.1210E+02  0.3292E+03
     -8.405  0.1523E+02  0.3308E+03
     -8.294  0.1677E+02  0.3327E+03
     -8.183  0.1995E+02  0.3349E+03
     -8.072  0.2160E+02  0.3373E+03
     -7.961  0.2417E+02  0.3399E+03
     -7.850  0.2699E+02  0.3429E+03
     -7.739  0.3054E+02  0.3463E+03
     -7.628  0.3230E+02  0.3499E+03
     -7.517  0.3286E+02  0.3535E+03
     -7.406  0.3365E+02  0.3572E+03
     -7.295  0.3515E+02  0.3611E+03
     -7.184  0.3624E+02  0.3651E+03
     -7.073  0.3718E+02  0.3692E+03
     -6.961  0.3708E+02  0.3733E+03
     -6.850  0.3760E+02  0.3775E+03
     -6.739  0.3894E+02  0.3818E+03
     -6.628  0.3991E+02  0.3862E+03
     -6.517  0.4116E+02  0.3908E+03
     -6.406  0.4070E+02  0.3953E+03
     -6.295  0.4238E+02  0.4000E+03
     -6.184  0.4437E+02  0.4049E+03
     -6.073  0.4600E+02  0.4100E+03
     -5.962  0.4719E+02  0.4152E+03
     -5.851  0.4667E+02  0.4204E+03
     -5.740  0.4873E+02  0.4258E+03
     -5.629  0.4950E+02  0.4313E+03
     -5.518  0.5093E+02  0.4369E+03
     -5.407  0.5286E+02  0.4427E+03
     -5.296  0.5434E+02  0.4488E+03
     -5.185  0.5641E+02  0.4550E+03
     -5.073  0.5792E+02  0.4614E+03
     -4.962  0.6037E+02  0.4681E+03
     -4.851  0.6446E+02  0.4752E+03
     -4.740  0.6758E+02  0.4827E+03
     -4.629  0.7109E+02  0.4906E+03
     -4.518  0.7364E+02  0.4987E+03
     -4.407  0.7606E+02  0.5071E+03
     -4.296  0.7685E+02  0.5156E+03
     -4.185  0.7919E+02  0.5244E+03
     -4.074  0.8131E+02  0.5334E+03
     -3.963  0.8380E+02  0.5427E+03
     -3.852  0.8543E+02  0.5521E+03
     -3.741  0.8615E+02  0.5617E+03
     -3.630  0.8555E+02  0.5711E+03
     -3.519  0.8760E+02  0.5808E+03
     -3.408  0.8824E+02  0.5906E+03
     -3.297  0.9179E+02  0.6008E+03
     -3.185  0.9345E+02  0.6111E+03
     -3.074  0.9498E+02  0.6216E+03
     -2.963  0.9764E+02  0.6324E+03
     -2.852  0.1012E+03  0.6436E+03
     -2.741  0.1040E+03  0.6551E+03
     -2.630  0.1068E+03  0.6670E+03
     -2.519  0.1106E+03  0.6792E+03
     -2.408  0.1143E+03  0.6918E+03
     -2.297  0.1178E+03  0.7049E+03
     -2.186  0.1216E+03  0.7183E+03
     -2.075  0.1269E+03  0.7324E+03
     -1.964  0.1290E+03  0.7466E+03
     -1.853  0.1328E+03  0.7613E+03
     -1.742  0.1368E+03  0.7765E+03
     -1.631  0.1413E+03  0.7921E+03
     -1.520  0.1439E+03  0.8081E+03
     -1.409  0.1438E+03  0.8240E+03
     -1.297  0.1473E+03  0.8403E+03
     -1.186  0.1497E+03  0.8568E+03
     -1.075  0.1523E+03  0.8737E+03
     -0.964  0.1548E+03  0.8908E+03
     -0.853  0.1555E+03  0.9081E+03
     -0.742  0.1559E+03  0.9253E+03
     -0.631  0.1555E+03  0.9425E+03
     -0.520  0.1575E+03  0.9600E+03
     -0.409  0.1577E+03  0.9774E+03
     -0.298  0.1576E+03  0.9949E+03
     -0.187  0.1575E+03  0.1012E+04
     -0.076  0.1560E+03  0.1030E+04
      0.035  0.1543E+03  0.1047E+04
      0.146  0.1539E+03  0.1064E+04
      0.257  0.1505E+03  0.1080E+04
      0.368  0.1478E+03  0.1097E+04
      0.479  0.1436E+03  0.1113E+04
      0.590  0.1403E+03  0.1128E+04
      0.702  0.1382E+03  0.1143E+04
      0.813  0.1330E+03  0.1158E+04
      0.924  0.1277E+03  0.1172E+04
      1.035  0.1223E+03  0.1186E+04
      1.146  0.1157E+03  0.1199E+04
      1.257  0.1086E+03  0.1211E+04
      1.368  0.1012E+03  0.1222E+04
      1.479  0.9064E+02  0.1232E+04
      1.590  0.8369E+02  0.1241E+04
      1.701  0.7743E+02  0.1250E+04
      1.812  0.6789E+02  0.1257E+04
      1.923  0.5998E+02  0.1264E+04
      2.034  0.5294E+02  0.1270E+04
      2.145  0.4556E+02  0.1275E+04
      2.256  0.3890E+02  0.1279E+04
      2.367  0.3265E+02  0.1283E+04
      2.478  0.2488E+02  0.1286E+04
      2.590  0.2005E+02  0.1288E+04
      2.701  0.1645E+02  0.1290E+04
      2.812  0.1339E+02  0.1291E+04
      2.923  0.1142E+02  0.1293E+04
      3.034  0.8795E+01  0.1293E+04
      3.145  0.7105E+01  0.1294E+04
      3.256  0.5525E+01  0.1295E+04
      3.367  0.4235E+01  0.1295E+04
      3.478  0.2340E+01  0.1296E+04
      3.589  0.2073E+01  0.1296E+04
      3.700  0.1956E+01  0.1296E+04
      3.811  0.2100E+01  0.1296E+04
      3.922  0.2163E+01  0.1297E+04
      4.033  0.2542E+01  0.1297E+04
      4.144  0.2496E+01  0.1297E+04
      4.255  0.3388E+01  0.1297E+04
      4.366  0.3046E+01  0.1298E+04
      4.478  0.3328E+01  0.1298E+04
      4.589  0.5639E+01  0.1299E+04
      4.700  0.6630E+01  0.1300E+04
      4.811  0.6132E+01  0.1300E+04
      4.922  0.6973E+01  0.1301E+04
      5.033  0.9163E+01  0.1302E+04
      5.144  0.1104E+02  0.1303E+04
      5.255  0.1251E+02  0.1305E+04
      5.366  0.1492E+02  0.1306E+04
      5.477  0.1625E+02  0.1308E+04
      5.588  0.1784E+02  0.1310E+04
      5.699  0.1966E+02  0.1312E+04
      5.810  0.2024E+02  0.1314E+04
      5.921  0.2266E+02  0.1317E+04
      6.032  0.2496E+02  0.1320E+04
      6.143  0.2647E+02  0.1323E+04
      6.254  0.2744E+02  0.1326E+04
      6.366  0.2957E+02  0.1329E+04
      6.477  0.3144E+02  0.1332E+04
      6.588  0.3267E+02  0.1336E+04
      6.699  0.3463E+02  0.1340E+04
      6.810  0.3593E+02  0.1344E+04
      6.921  0.3702E+02  0.1348E+04
      7.032  0.3900E+02  0.1352E+04
      7.143  0.4079E+02  0.1357E+04
      7.254  0.4336E+02  0.1362E+04
      7.365  0.4616E+02  0.1367E+04
      7.476  0.4749E+02  0.1372E+04
      7.587  0.4835E+02  0.1377E+04
      7.698  0.5047E+02  0.1383E+04
      7.809  0.5059E+02  0.1389E+04
      7.920  0.5338E+02  0.1394E+04
      8.031  0.5570E+02  0.1401E+04
      8.142  0.5796E+02  0.1407E+04
      8.254  0.6046E+02  0.1414E+04
      8.365  0.6273E+02  0.1421E+04
      8.476  0.6401E+02  0.1428E+04
      8.587  0.6584E+02  0.1435E+04
      8.698  0.6828E+02  0.1443E+04
      8.809  0.6991E+02  0.1450E+04
      8.920  0.7193E+02  0.1458E+04
      9.031  0.7458E+02  0.1467E+04
      9.142  0.7641E+02  0.1475E+04
      9.253  0.8000E+02  0.1484E+04
      9.364  0.8135E+02  0.1493E+04
      9.475  0.8336E+02  0.1502E+04
      9.586  0.8390E+02  0.1511E+04
      9.697  0.8598E+02  0.1521E+04
      9.808  0.8384E+02  0.1530E+04
      9.919  0.8372E+02  0.1539E+04
     10.030  0.8196E+02  0.1549E+04
     10.142  0.7819E+02  0.1557E+04
     10.253  0.6718E+02  0.1565E+04
     10.364  0.2997E+02  0.1568E+04
     10.475  0.4605E+00  0.1568E+04
     10.586  0.2891E-05  0.1568E+04
     10.697  0.1159E-14  0.1568E+04
     10.808  0.0000E+00  0.1568E+04
     10.919  0.0000E+00  0.1568E+04
     11.030  0.0000E+00  0.1568E+04
     11.141  0.0000E+00  0.1568E+04
     11.252  0.0000E+00  0.1568E+04
     11.363  0.0000E+00  0.1568E+04
     11.474  0.0000E+00  0.1568E+04
     11.585  0.0000E+00  0.1568E+04
     11.696  0.0000E+00  0.1568E+04
     11.807  0.0000E+00  0.1568E+04
     11.82598282    -21.57296383  301      2.93351327      1.00000000
    -21.573  0.0000E+00  0.0000E+00
    -21.462  0.0000E+00  0.0000E+00
    -21.350  0.0000E+00  0.0000E+00
    -21.239  0.0000E+00  0.0000E+00
    -21.128  0.0000E+00  0.0000E+00
    -21.016  0.0000E+00  0.0000E+00
    -20.905  0.0000E+00  0.0000E+00
    -20.794  0.0000E+00  0.0000E+00
    -20.682  0.0000E+00  0.0000E+00
    -20.571  0.0000E+00  0.0000E+00
    -20.460  0.0000E+00  0.0000E+00
    -20.348  0.9972E-18  0.1110E-18
    -20.237  0.2306E-08  0.2567E-09
    -20.126  0.4050E-03  0.4509E-04
    -20.014  0.1529E-01  0.1748E-02
    -19.903  0.2265E-02  0.2000E-02
    -19.792  0.1577E-06  0.2000E-02
    -19.680  0.8855E-15  0.2000E-02
    -19.569  0.0000E+00  0.2000E-02
    -19.458  0.5478E-11  0.2000E-02
    -19.346  0.2132E-04  0.2002E-02
    -19.235  0.1013E-01  0.3130E-02
    -19.124  0.2342E-01  0.5738E-02
    -19.012  0.2498E-02  0.6016E-02
    -18.901  0.1437E-01  0.7616E-02
    -18.790  0.3527E-01  0.1154E-01
    -18.678  0.5660E-01  0.1784E-01
    -18.567  0.2051E-01  0.2013E-01
    -18.456  0.2679E-01  0.2311E-01
    -18.344  0.3615E-01  0.2713E-01
    -18.233  0.4289E-01  0.3191E-01
    -18.122  0.8466E-01  0.4133E-01
    -18.010  0.6181E-01  0.4822E-01
    -17.899  0.5776E-01  0.5465E-01
    -17.788  0.7352E-01  0.6283E-01
    -17.676  0.7718E-01  0.7142E-01
    -17.565  0.7759E-01  0.8006E-01
    -17.454  0.7449E-01  0.8835E-01
    -17.342  0.7217E-01  0.9639E-01
    -17.231  0.5181E-01  0.1022E+00
    -17.120  0.7358E-01  0.1103E+00
    -17.008  0.9972E-01  0.1214E+00
    -16.897  0.1113E+00  0.1338E+00
    -16.786  0.9035E-01  0.1439E+00
    -16.674  0.9067E-01  0.1540E+00
    -16.563  0.1408E+00  0.1697E+00
    -16.452  0.8869E-01  0.1795E+00
    -16.340  0.9826E-01  0.1905E+00
    -16.229  0.6909E-01  0.1982E+00
    -16.118  0.9223E-01  0.2084E+00
    -16.006  0.9707E-01  0.2193E+00
    -15.895  0.1053E+00  0.2310E+00
    -15.784  0.8786E-01  0.2408E+00
    -15.672  0.6169E-01  0.2476E+00
    -15.561  0.9983E-01  0.2587E+00
    -15.450  0.6439E-01  0.2659E+00
    -15.338  0.3796E-01  0.2701E+00
    -15.227  0.4448E-01  0.2751E+00
    -15.116  0.7408E-01  0.2833E+00
    -15.005  0.4842E-01  0.2887E+00
    -14.893  0.6939E-01  0.2965E+00
    -14.782  0.5141E-01  0.3022E+00
    -14.671  0.1749E-01  0.3041E+00
    -14.559  0.1873E-01  0.3062E+00
    -14.448  0.3079E-01  0.3096E+00
    -14.337  0.2260E-01  0.3122E+00
    -14.225  0.1650E-01  0.3140E+00
    -14.114  0.1385E-01  0.3155E+00
    -14.003  0.2421E-01  0.3182E+00
    -13.891  0.1581E-01  0.3200E+00
    -13.780  0.1658E-03  0.3200E+00
    -13.669  0.1188E-01  0.3213E+00
    -13.557  0.2338E-01  0.3239E+00
    -13.446  0.6402E-03  0.3240E+00
    -13.335  0.6393E-08  0.3240E+00
    -13.223  0.3989E-17  0.3240E+00
    -13.112  0.0000E+00  0.3240E+00
    -13.001  0.0000E+00  0.3240E+00
    -12.889  0.0000E+00  0.3240E+00
    -12.778  0.0000E+00  0.3240E+00
    -12.667  0.0000E+00  0.3240E+00
    -12.555  0.0000E+00  0.3240E+00
    -12.444  0.0000E+00  0.3240E+00
    -12.333  0.0000E+00  0.3240E+00
    -12.221  0.0000E+00  0.3240E+00
    -12.110  0.0000E+00  0.3240E+00
    -11.999  0.0000E+00  0.3240E+00
    -11.887  0.0000E+00  0.3240E+00
    -11.776  0.0000E+00  0.3240E+00
    -11.665  0.0000E+00  0.3240E+00
    -11.553  0.0000E+00  0.3240E+00
    -11.442  0.0000E+00  0.3240E+00
    -11.331  0.0000E+00  0.3240E+00
    -11.219  0.0000E+00  0.3240E+00
    -11.108  0.0000E+00  0.3240E+00
    -10.997  0.0000E+00  0.3240E+00
    -10.885  0.0000E+00  0.3240E+00
    -10.774  0.0000E+00  0.3240E+00
    -10.663  0.0000E+00  0.3240E+00
    -10.551  0.0000E+00  0.3240E+00
    -10.440  0.0000E+00  0.3240E+00
    -10.329  0.0000E+00  0.3240E+00
    -10.217  0.0000E+00  0.3240E+00
    -10.106  0.0000E+00  0.3240E+00
     -9.995  0.0000E+00  0.3240E+00
     -9.883  0.0000E+00  0.3240E+00
     -9.772  0.0000E+00  0.3240E+00
     -9.661  0.0000E+00  0.3240E+00
     -9.549  0.0000E+00  0.3240E+00
     -9.438  0.0000E+00  0.3240E+00
     -9.327  0.0000E+00  0.3240E+00
     -9.215  0.0000E+00  0.3240E+00
     -9.104  0.2762E-14  0.3240E+00
     -8.993  0.3090E-06  0.3240E+00
     -8.881  0.2879E-02  0.3243E+00
     -8.770  0.1481E-01  0.3260E+00
     -8.659  0.2795E-03  0.3260E+00
     -8.547  0.1950E-04  0.3260E+00
     -8.436  0.1088E-01  0.3272E+00
     -8.325  0.2423E-01  0.3299E+00
     -8.213  0.1144E-01  0.3312E+00
     -8.102  0.3240E-01  0.3348E+00
     -7.991  0.2091E-01  0.3371E+00
     -7.879  0.2284E-01  0.3397E+00
     -7.768  0.1013E-01  0.3408E+00
     -7.657  0.3370E-01  0.3445E+00
     -7.545  0.2660E-01  0.3475E+00
     -7.434  0.2947E-01  0.3508E+00
     -7.323  0.4576E-01  0.3559E+00
     -7.211  0.4777E-01  0.3612E+00
     -7.100  0.3185E-01  0.3647E+00
     -6.989  0.3111E-01  0.3682E+00
     -6.877  0.4939E-01  0.3737E+00
     -6.766  0.3409E-01  0.3775E+00
     -6.655  0.4744E-01  0.3828E+00
     -6.543  0.3110E-01  0.3862E+00
     -6.432  0.4196E-01  0.3909E+00
     -6.321  0.3699E-01  0.3950E+00
     -6.209  0.5158E-01  0.4008E+00
     -6.098  0.4086E-01  0.4053E+00
     -5.987  0.5619E-01  0.4116E+00
     -5.875  0.4682E-01  0.4168E+00
     -5.764  0.4532E-01  0.4218E+00
     -5.653  0.4528E-01  0.4269E+00
     -5.541  0.6663E-01  0.4343E+00
     -5.430  0.5806E-01  0.4408E+00
     -5.319  0.5552E-01  0.4469E+00
     -5.207  0.3695E-01  0.4511E+00
     -5.096  0.4885E-01  0.4565E+00
     -4.985  0.5597E-01  0.4627E+00
     -4.873  0.7695E-01  0.4713E+00
     -4.762  0.7285E-01  0.4794E+00
     -4.651  0.7268E-01  0.4875E+00
     -4.540  0.7796E-01  0.4962E+00
     -4.428  0.7890E-01  0.5050E+00
     -4.317  0.7735E-01  0.5136E+00
     -4.206  0.1036E+00  0.5251E+00
     -4.094  0.6070E-01  0.5319E+00
     -3.983  0.9237E-01  0.5421E+00
     -3.872  0.8486E-01  0.5516E+00
     -3.760  0.9327E-01  0.5620E+00
     -3.649  0.7958E-01  0.5708E+00
     -3.538  0.7888E-01  0.5796E+00
     -3.426  0.9589E-01  0.5903E+00
     -3.315  0.7651E-01  0.5988E+00
     -3.204  0.8849E-01  0.6087E+00
     -3.092  0.7253E-01  0.6167E+00
     -2.981  0.1012E+00  0.6280E+00
     -2.870  0.8080E-01  0.6370E+00
     -2.758  0.8792E-01  0.6468E+00
     -2.647  0.9384E-01  0.6572E+00
     -2.536  0.9552E-01  0.6679E+00
     -2.424  0.9113E-01  0.6780E+00
     -2.313  0.1389E+00  0.6935E+00
     -2.202  0.1178E+00  0.7066E+00
     -2.090  0.1346E+00  0.7216E+00
     -1.979  0.1414E+00  0.7373E+00
     -1.868  0.1503E+00  0.7541E+00
     -1.756  0.1376E+00  0.7694E+00
     -1.645  0.1540E+00  0.7865E+00
     -1.534  0.1639E+00  0.8048E+00
     -1.422  0.1516E+00  0.8217E+00
     -1.311  0.1433E+00  0.8376E+00
     -1.200  0.1632E+00  0.8558E+00
     -1.088  0.1526E+00  0.8728E+00
     -0.977  0.1623E+00  0.8908E+00
     -0.866  0.1529E+00  0.9078E+00
     -0.754  0.1624E+00  0.9259E+00
     -0.643  0.1565E+00  0.9434E+00
     -0.532  0.1780E+00  0.9632E+00
     -0.420  0.1639E+00  0.9814E+00
     -0.309  0.1497E+00  0.9981E+00
     -0.198  0.1532E+00  0.1015E+01
     -0.086  0.1706E+00  0.1034E+01
      0.025  0.1621E+00  0.1052E+01
      0.136  0.1720E+00  0.1071E+01
      0.248  0.1536E+00  0.1088E+01
      0.359  0.1538E+00  0.1106E+01
      0.470  0.1247E+00  0.1119E+01
      0.582  0.1586E+00  0.1137E+01
      0.693  0.1447E+00  0.1153E+01
      0.804  0.1466E+00  0.1170E+01
      0.916  0.1341E+00  0.1184E+01
      1.027  0.1529E+00  0.1201E+01
      1.138  0.1296E+00  0.1216E+01
      1.250  0.8203E-01  0.1225E+01
      1.361  0.8151E-01  0.1234E+01
      1.472  0.7412E-01  0.1242E+01
      1.584  0.7489E-01  0.1251E+01
      1.695  0.8202E-01  0.1260E+01
      1.806  0.4225E-01  0.1265E+01
      1.918  0.5951E-01  0.1271E+01
      2.029  0.2965E-01  0.1274E+01
      2.140  0.4783E-01  0.1280E+01
      2.252  0.5163E-01  0.1286E+01
      2.363  0.3724E-01  0.1290E+01
      2.474  0.6232E-02  0.1290E+01
      2.586  0.3042E-01  0.1294E+01
      2.697  0.1774E-01  0.1296E+01
      2.808  0.2260E-02  0.1296E+01
      2.920  0.1566E-06  0.1296E+01
      3.031  0.8756E-15  0.1296E+01
      3.142  0.0000E+00  0.1296E+01
      3.254  0.0000E+00  0.1296E+01
      3.365  0.0000E+00  0.1296E+01
      3.476  0.0000E+00  0.1296E+01
      3.588  0.0000E+00  0.1296E+01
      3.699  0.0000E+00  0.1296E+01
      3.810  0.0000E+00  0.1296E+01
      3.922  0.3783E-10  0.1296E+01
      4.033  0.5744E-04  0.1296E+01
      4.144  0.1186E-01  0.1297E+01
      4.256  0.6042E-02  0.1298E+01
      4.367  0.3195E-05  0.1298E+01
      4.478  0.1461E-08  0.1298E+01
      4.590  0.3300E-03  0.1298E+01
      4.701  0.1504E-01  0.1300E+01
      4.812  0.2596E-02  0.1300E+01
      4.924  0.4454E-03  0.1300E+01
      5.035  0.1819E-01  0.1302E+01
      5.146  0.1742E-01  0.1304E+01
      5.258  0.1565E-01  0.1306E+01
      5.369  0.9708E-02  0.1307E+01
      5.480  0.1316E-01  0.1308E+01
      5.592  0.1659E-01  0.1310E+01
      5.703  0.2749E-01  0.1313E+01
      5.814  0.1863E-01  0.1315E+01
      5.926  0.3165E-01  0.1319E+01
      6.037  0.4105E-01  0.1323E+01
      6.148  0.2233E-01  0.1326E+01
      6.259  0.1741E-01  0.1328E+01
      6.371  0.4381E-01  0.1333E+01
      6.482  0.1527E-01  0.1334E+01
      6.593  0.4190E-01  0.1339E+01
      6.705  0.1718E-01  0.1341E+01
      6.816  0.3775E-01  0.1345E+01
      6.927  0.3908E-01  0.1350E+01
      7.039  0.3103E-01  0.1353E+01
      7.150  0.3634E-01  0.1357E+01
      7.261  0.3302E-01  0.1361E+01
      7.373  0.4124E-01  0.1365E+01
      7.484  0.4593E-01  0.1370E+01
      7.595  0.5267E-01  0.1376E+01
      7.707  0.5039E-01  0.1382E+01
      7.818  0.6463E-01  0.1389E+01
      7.929  0.4222E-01  0.1394E+01
      8.041  0.5291E-01  0.1400E+01
      8.152  0.6570E-01  0.1407E+01
      8.263  0.5460E-01  0.1413E+01
      8.375  0.6549E-01  0.1420E+01
      8.486  0.5060E-01  0.1426E+01
      8.597  0.6851E-01  0.1434E+01
      8.709  0.8251E-01  0.1443E+01
      8.820  0.7159E-01  0.1451E+01
      8.931  0.6373E-01  0.1458E+01
      9.043  0.8137E-01  0.1467E+01
      9.154  0.8624E-01  0.1477E+01
      9.265  0.7855E-01  0.1485E+01
      9.377  0.8203E-01  0.1494E+01
      9.488  0.1006E+00  0.1506E+01
      9.599  0.7648E-01  0.1514E+01
      9.711  0.7178E-01  0.1522E+01
      9.822  0.6291E-01  0.1529E+01
      9.933  0.7075E-01  0.1537E+01
     10.045  0.6388E-01  0.1544E+01
     10.156  0.7458E-01  0.1552E+01
     10.267  0.8923E-01  0.1562E+01
     10.379  0.5031E-01  0.1568E+01
     10.490  0.7450E-03  0.1568E+01
     10.601  0.3236E-08  0.1568E+01
     10.713  0.0000E+00  0.1568E+01
     10.824  0.0000E+00  0.1568E+01
     10.935  0.0000E+00  0.1568E+01
     11.047  0.0000E+00  0.1568E+01
     11.158  0.0000E+00  0.1568E+01
     11.269  0.0000E+00  0.1568E+01
     11.381  0.0000E+00  0.1568E+01
     11.492  0.0000E+00  0.1568E+01
     11.603  0.0000E+00  0.1568E+01
     11.715  0.0000E+00  0.1568E+01
     11.826  0.0000E+00  0.1568E+01
