  243  243 1000    1
  0.1311304E+02  0.1499160E-08  0.1499160E-08  0.1637130E-08  0.5000000E-15
   4000.00000000000     
  CAR 
 (Si O2)81  (P1) ~ 3x3x3Supersel (VASP)  
   1296      1    784
 
  0.0000000E+00  0.0000000E+00  0.0000000E+00  0.1000000E+01
    1      -20.054830
    2      -19.238923
    3      -19.163461
    4      -18.927293
    5      -18.837296
    6      -18.795429
    7      -18.766878
    8      -18.725812
    9      -18.683109
   10      -18.675322
   11      -18.513282
   12      -18.458834
   13      -18.403570
   14      -18.351844
   15      -18.277383
   16      -18.243855
   17      -18.216160
   18      -18.182215
   19      -18.170962
   20      -18.146495
   21      -18.128229
   22      -18.113905
   23      -18.061743
   24      -18.037436
   25      -17.990319
   26      -17.963830
   27      -17.942045
   28      -17.887305
   29      -17.843058
   30      -17.837088
   31      -17.810146
   32      -17.796419
   33      -17.751246
   34      -17.731580
   35      -17.712480
   36      -17.672564
   37      -17.663840
   38      -17.632775
   39      -17.595249
   40      -17.584999
   41      -17.557560
   42      -17.520470
   43      -17.494862
   44      -17.464075
   45      -17.450176
   46      -17.422027
   47      -17.401661
   48      -17.344806
   49      -17.332345
   50      -17.325553
   51      -17.272249
   52      -17.190461
   53      -17.177349
   54      -17.154204
   55      -17.129143
   56      -17.118597
   57      -17.092103
   58      -17.067118
   59      -17.052040
   60      -17.032812
   61      -17.019101
   62      -16.987871
   63      -16.967052
   64      -16.953371
   65      -16.945849
   66      -16.933737
   67      -16.909300
   68      -16.881023
   69      -16.862715
   70      -16.845594
   71      -16.835040
   72      -16.787121
   73      -16.782830
   74      -16.737674
   75      -16.712881
   76      -16.692591
   77      -16.676186
   78      -16.669437
   79      -16.652192
   80      -16.637161
   81      -16.618440
   82      -16.603561
   83      -16.598866
   84      -16.584547
   85      -16.569948
   86      -16.561369
   87      -16.540162
   88      -16.522552
   89      -16.498206
   90      -16.457377
   91      -16.430006
   92      -16.385593
   93      -16.373003
   94      -16.371031
   95      -16.365826
   96      -16.356637
   97      -16.318281
   98      -16.259347
   99      -16.250529
  100      -16.207252
  101      -16.195941
  102      -16.183198
  103      -16.155123
  104      -16.140298
  105      -16.097598
  106      -16.094067
  107      -16.074228
  108      -16.053433
  109      -16.021226
  110      -16.001321
  111      -15.983514
  112      -15.980692
  113      -15.961368
  114      -15.948577
  115      -15.922239
  116      -15.903268
  117      -15.852154
  118      -15.846808
  119      -15.823974
  120      -15.806536
  121      -15.802104
  122      -15.740158
  123      -15.708481
  124      -15.699876
  125      -15.623693
  126      -15.619811
  127      -15.603814
  128      -15.601184
  129      -15.587887
  130      -15.584224
  131      -15.527408
  132      -15.478941
  133      -15.449120
  134      -15.441646
  135      -15.428460
  136      -15.281835
  137      -15.264143
  138      -15.241703
  139      -15.169096
  140      -15.161605
  141      -15.137653
  142      -15.133498
  143      -15.107321
  144      -15.015865
  145      -15.000125
  146      -14.979810
  147      -14.934182
  148      -14.932732
  149      -14.889025
  150      -14.824139
  151      -14.809845
  152      -14.774548
  153      -14.616265
  154      -14.521793
  155      -14.478584
  156      -14.380258
  157      -14.304587
  158      -14.136699
  159      -14.043775
  160      -13.976851
  161      -13.675029
  162      -13.621184
  163       -8.846246
  164       -8.438962
  165       -8.384832
  166       -8.210039
  167       -8.173489
  168       -8.094680
  169       -7.994928
  170       -7.913328
  171       -7.757500
  172       -7.688413
  173       -7.652591
  174       -7.565182
  175       -7.483681
  176       -7.430016
  177       -7.356673
  178       -7.339864
  179       -7.306035
  180       -7.278249
  181       -7.216029
  182       -7.161685
  183       -7.092017
  184       -7.001818
  185       -6.982011
  186       -6.924858
  187       -6.878169
  188       -6.871640
  189       -6.768453
  190       -6.737523
  191       -6.690031
  192       -6.654967
  193       -6.599384
  194       -6.509736
  195       -6.459341
  196       -6.437336
  197       -6.392958
  198       -6.306640
  199       -6.285754
  200       -6.255656
  201       -6.201529
  202       -6.162043
  203       -6.101640
  204       -6.059019
  205       -6.028868
  206       -5.983470
  207       -5.975381
  208       -5.939923
  209       -5.863391
  210       -5.820276
  211       -5.791899
  212       -5.730785
  213       -5.692697
  214       -5.638575
  215       -5.623538
  216       -5.586088
  217       -5.564163
  218       -5.534629
  219       -5.494409
  220       -5.461032
  221       -5.418128
  222       -5.402359
  223       -5.360590
  224       -5.318965
  225       -5.273406
  226       -5.204072
  227       -5.155024
  228       -5.140701
  229       -5.084006
  230       -5.029352
  231       -5.005539
  232       -4.977761
  233       -4.955570
  234       -4.939969
  235       -4.912656
  236       -4.871791
  237       -4.849328
  238       -4.823518
  239       -4.793692
  240       -4.778789
  241       -4.729219
  242       -4.706979
  243       -4.687168
  244       -4.669006
  245       -4.620497
  246       -4.596809
  247       -4.566150
  248       -4.560426
  249       -4.530208
  250       -4.512408
  251       -4.471248
  252       -4.451342
  253       -4.436476
  254       -4.400303
  255       -4.367873
  256       -4.334965
  257       -4.314296
  258       -4.299363
  259       -4.292121
  260       -4.269428
  261       -4.259754
  262       -4.223743
  263       -4.205949
  264       -4.193548
  265       -4.158447
  266       -4.098472
  267       -4.074571
  268       -4.042218
  269       -4.029015
  270       -4.023036
  271       -4.002908
  272       -3.978453
  273       -3.942703
  274       -3.924323
  275       -3.889639
  276       -3.879358
  277       -3.858376
  278       -3.838123
  279       -3.810962
  280       -3.805426
  281       -3.772094
  282       -3.744904
  283       -3.720853
  284       -3.709954
  285       -3.669964
  286       -3.649692
  287       -3.609898
  288       -3.602769
  289       -3.574674
  290       -3.539492
  291       -3.514582
  292       -3.499810
  293       -3.483835
  294       -3.463319
  295       -3.441170
  296       -3.425593
  297       -3.391534
  298       -3.366242
  299       -3.328634
  300       -3.326329
  301       -3.277431
  302       -3.258825
  303       -3.232076
  304       -3.221269
  305       -3.208884
  306       -3.183731
  307       -3.152846
  308       -3.106667
  309       -3.080483
  310       -3.069963
  311       -3.043086
  312       -3.022408
  313       -3.012550
  314       -3.001298
  315       -2.976841
  316       -2.936296
  317       -2.929996
  318       -2.883080
  319       -2.864478
  320       -2.846735
  321       -2.835852
  322       -2.809588
  323       -2.782662
  324       -2.754398
  325       -2.727793
  326       -2.701289
  327       -2.683037
  328       -2.675626
  329       -2.653506
  330       -2.619284
  331       -2.608474
  332       -2.604039
  333       -2.561402
  334       -2.545255
  335       -2.520224
  336       -2.500304
  337       -2.484997
  338       -2.475814
  339       -2.420564
  340       -2.400996
  341       -2.397785
  342       -2.371722
  343       -2.368975
  344       -2.364024
  345       -2.352840
  346       -2.332639
  347       -2.318104
  348       -2.295469
  349       -2.284580
  350       -2.282043
  351       -2.257284
  352       -2.237937
  353       -2.218570
  354       -2.189147
  355       -2.178629
  356       -2.164987
  357       -2.139197
  358       -2.133915
  359       -2.113491
  360       -2.101738
  361       -2.090471
  362       -2.078434
  363       -2.070396
  364       -2.066548
  365       -2.059724
  366       -2.019174
  367       -2.005993
  368       -1.987994
  369       -1.976794
  370       -1.971890
  371       -1.952934
  372       -1.946622
  373       -1.923298
  374       -1.920030
  375       -1.900958
  376       -1.890756
  377       -1.871239
  378       -1.862527
  379       -1.849047
  380       -1.827953
  381       -1.823286
  382       -1.811158
  383       -1.799943
  384       -1.762610
  385       -1.757984
  386       -1.753513
  387       -1.716176
  388       -1.706003
  389       -1.701727
  390       -1.699336
  391       -1.687623
  392       -1.660706
  393       -1.657547
  394       -1.647109
  395       -1.630367
  396       -1.611504
  397       -1.599616
  398       -1.591800
  399       -1.576828
  400       -1.560257
  401       -1.552991
  402       -1.546533
  403       -1.528442
  404       -1.527043
  405       -1.511086
  406       -1.496282
  407       -1.492431
  408       -1.479147
  409       -1.445492
  410       -1.437258
  411       -1.425681
  412       -1.421933
  413       -1.406829
  414       -1.372079
  415       -1.361959
  416       -1.347878
  417       -1.342665
  418       -1.321129
  419       -1.314865
  420       -1.303735
  421       -1.297915
  422       -1.281640
  423       -1.255376
  424       -1.245654
  425       -1.229127
  426       -1.228573
  427       -1.220345
  428       -1.210210
  429       -1.188884
  430       -1.181552
  431       -1.173448
  432       -1.161954
  433       -1.140449
  434       -1.119594
  435       -1.103080
  436       -1.101266
  437       -1.092263
  438       -1.070728
  439       -1.056897
  440       -1.052336
  441       -1.035471
  442       -1.031368
  443       -1.019766
  444       -1.011540
  445       -0.999132
  446       -0.962167
  447       -0.958516
  448       -0.945134
  449       -0.939689
  450       -0.921962
  451       -0.913605
  452       -0.906545
  453       -0.891410
  454       -0.872002
  455       -0.854810
  456       -0.832705
  457       -0.829107
  458       -0.817299
  459       -0.808624
  460       -0.799346
  461       -0.776433
  462       -0.772677
  463       -0.753446
  464       -0.751203
  465       -0.736817
  466       -0.735399
  467       -0.710791
  468       -0.698070
  469       -0.684745
  470       -0.670333
  471       -0.657983
  472       -0.635706
  473       -0.635471
  474       -0.615910
  475       -0.608007
  476       -0.597729
  477       -0.587463
  478       -0.576205
  479       -0.572278
  480       -0.560391
  481       -0.553864
  482       -0.529447
  483       -0.523839
  484       -0.502291
  485       -0.495007
  486       -0.485556
  487       -0.463390
  488       -0.462367
  489       -0.446496
  490       -0.429164
  491       -0.426355
  492       -0.412619
  493       -0.399251
  494       -0.392015
  495       -0.374087
  496       -0.359233
  497       -0.343687
  498       -0.330981
  499       -0.315983
  500       -0.303291
  501       -0.289083
  502       -0.267267
  503       -0.266215
  504       -0.245073
  505       -0.234526
  506       -0.225337
  507       -0.215584
  508       -0.195766
  509       -0.183750
  510       -0.170332
  511       -0.164486
  512       -0.149856
  513       -0.138920
  514       -0.124566
  515       -0.112368
  516       -0.107275
  517       -0.084237
  518       -0.083646
  519       -0.074997
  520       -0.059690
  521       -0.050240
  522       -0.036597
  523       -0.025397
  524       -0.006070
  525        0.001168
  526        0.010640
  527        0.039186
  528        0.050292
  529        0.056545
  530        0.070786
  531        0.076327
  532        0.084605
  533        0.096003
  534        0.108231
  535        0.122692
  536        0.140097
  537        0.148421
  538        0.157987
  539        0.164320
  540        0.178950
  541        0.185570
  542        0.214409
  543        0.229925
  544        0.234151
  545        0.251058
  546        0.266856
  547        0.283561
  548        0.288799
  549        0.298933
  550        0.327725
  551        0.335608
  552        0.342027
  553        0.360118
  554        0.364578
  555        0.369845
  556        0.387956
  557        0.408021
  558        0.426749
  559        0.454466
  560        0.477550
  561        0.490032
  562        0.499422
  563        0.512167
  564        0.515939
  565        0.528442
  566        0.550465
  567        0.554256
  568        0.566202
  569        0.577036
  570        0.589132
  571        0.612071
  572        0.615958
  573        0.640867
  574        0.647522
  575        0.661398
  576        0.675793
  577        0.696644
  578        0.714103
  579        0.717889
  580        0.729057
  581        0.737845
  582        0.750777
  583        0.774193
  584        0.784318
  585        0.795189
  586        0.820841
  587        0.826922
  588        0.850173
  589        0.861104
  590        0.874254
  591        0.888808
  592        0.906870
  593        0.929418
  594        0.934988
  595        0.947098
  596        0.959401
  597        0.966386
  598        0.977371
  599        0.986314
  600        1.019318
  601        1.024423
  602        1.038431
  603        1.046637
  604        1.068545
  605        1.077162
  606        1.083849
  607        1.119515
  608        1.125976
  609        1.135837
  610        1.171028
  611        1.199547
  612        1.225919
  613        1.257053
  614        1.271190
  615        1.292483
  616        1.307919
  617        1.325505
  618        1.395010
  619        1.401337
  620        1.433147
  621        1.456595
  622        1.487607
  623        1.494545
  624        1.522111
  625        1.556839
  626        1.582340
  627        1.637551
  628        1.648719
  629        1.660639
  630        1.679171
  631        1.692440
  632        1.759363
  633        1.826268
  634        1.861305
  635        1.884541
  636        1.893316
  637        1.970600
  638        2.053506
  639        2.094192
  640        2.111232
  641        2.174925
  642        2.201301
  643        2.240732
  644        2.278125
  645        2.325514
  646        2.508033
  647        2.544358
  648        2.656402
  649        4.129302
  650        4.663391
  651        4.992973
  652        5.070678
  653        5.216375
  654        5.376124
  655        5.516400
  656        5.639213
  657        5.690317
  658        5.803925
  659        5.882208
  660        5.927570
  661        5.991492
  662        6.013710
  663        6.096452
  664        6.244595
  665        6.287337
  666        6.331403
  667        6.372526
  668        6.515536
  669        6.561699
  670        6.572991
  671        6.709476
  672        6.773125
  673        6.799952
  674        6.894043
  675        6.919411
  676        6.942426
  677        7.040966
  678        7.121936
  679        7.151187
  680        7.176242
  681        7.276503
  682        7.338549
  683        7.363035
  684        7.404542
  685        7.449832
  686        7.514031
  687        7.520319
  688        7.555243
  689        7.620046
  690        7.658490
  691        7.700876
  692        7.728057
  693        7.747892
  694        7.761140
  695        7.832494
  696        7.839835
  697        7.932894
  698        7.940402
  699        7.988510
  700        8.034916
  701        8.072064
  702        8.080440
  703        8.120023
  704        8.153916
  705        8.182614
  706        8.221949
  707        8.277183
  708        8.290452
  709        8.313636
  710        8.354573
  711        8.394203
  712        8.403031
  713        8.482482
  714        8.503367
  715        8.526665
  716        8.561084
  717        8.586367
  718        8.619430
  719        8.654599
  720        8.664696
  721        8.688589
  722        8.715680
  723        8.732551
  724        8.742934
  725        8.791500
  726        8.828211
  727        8.853480
  728        8.894954
  729        8.903976
  730        8.964657
  731        8.977868
  732        8.996058
  733        9.020769
  734        9.045791
  735        9.058035
  736        9.102890
  737        9.124817
  738        9.131697
  739        9.156496
  740        9.179716
  741        9.206226
  742        9.226779
  743        9.257220
  744        9.308800
  745        9.313722
  746        9.337273
  747        9.347661
  748        9.400392
  749        9.406282
  750        9.427084
  751        9.438522
  752        9.449290
  753        9.474155
  754        9.503155
  755        9.542917
  756        9.565736
  757        9.580847
  758        9.604266
  759        9.645134
  760        9.666047
  761        9.693783
  762        9.721181
  763        9.756133
  764        9.790273
  765        9.834496
  766        9.839769
  767        9.870009
  768        9.915715
  769        9.933278
  770        9.960892
  771        9.986486
  772        9.991742
  773       10.084744
  774       10.114744
  775       10.129235
  776       10.138097
  777       10.154374
  778       10.179910
  779       10.208618
  780       10.228536
  781       10.242457
  782       10.286260
  783       10.301388
  784       10.307849
