       N       E                     dE             d eps       ncg     rms          rms(c)
DAV:   1     0.786262982464E+04    0.78626E+04   -0.59097E+05  1576   0.124E+03
DAV:   2    -0.131515995920E+04   -0.91778E+04   -0.89379E+04  1872   0.325E+02
DAV:   3    -0.204159917328E+04   -0.72644E+03   -0.72028E+03  1808   0.987E+01
DAV:   4    -0.205675798704E+04   -0.15159E+02   -0.15091E+02  1872   0.145E+01
DAV:   5    -0.205712747307E+04   -0.36949E+00   -0.36878E+00  1808   0.208E+00    0.126E+02
RMM:   6    -0.178663106138E+04    0.27050E+03   -0.11370E+03  1568   0.329E+01    0.500E+01
RMM:   7    -0.178307292047E+04    0.35581E+01   -0.45794E+01  1587   0.568E+00    0.260E+01
RMM:   8    -0.178184536434E+04    0.12276E+01   -0.10362E+01  1568   0.409E+00    0.469E+00
RMM:   9    -0.178165322644E+04    0.19214E+00   -0.12324E+00  1570   0.101E+00    0.184E+00
RMM:  10    -0.178170024562E+04   -0.47019E-01   -0.53464E-01  1575   0.631E-01    0.126E+00
RMM:  11    -0.178171049331E+04   -0.10248E-01   -0.67702E-02  1569   0.266E-01    0.486E-01
RMM:  12    -0.178171425240E+04   -0.37591E-02   -0.28368E-02  1568   0.167E-01    0.179E-01
RMM:  13    -0.178171386660E+04    0.38580E-03   -0.56597E-03  1606   0.612E-02    0.879E-02
RMM:  14    -0.178171389064E+04   -0.24048E-04   -0.21956E-03  1442   0.373E-02    0.482E-02
RMM:  15    -0.178171385610E+04    0.34544E-04   -0.60229E-04  1297   0.211E-02
    1 T=  4021. E= -.16559278E+04 F= -.17817139E+04 E0= -.17817139E+04  EK= 0.12579E+03 SP= 0.00E+00 SK= 0.11E-04
       N       E                     dE             d eps       ncg     rms          rms(c)
DAV:   1    -0.178299268167E+04   -0.12788E+01   -0.15545E+02  1664   0.169E+01    0.420E+00
RMM:   2    -0.178330515236E+04   -0.31247E+00   -0.38866E+00  1568   0.238E+00    0.139E+00
RMM:   3    -0.178325371925E+04    0.51433E-01   -0.10889E-01  1584   0.360E-01    0.798E-01
RMM:   4    -0.178323841397E+04    0.15305E-01   -0.76171E-02  1568   0.257E-01    0.196E-01
RMM:   5    -0.178323792259E+04    0.49137E-03   -0.32689E-03  1586   0.493E-02    0.108E-01
RMM:   6    -0.178323772256E+04    0.20004E-03   -0.82275E-04  1412   0.239E-02    0.528E-02
RMM:   7    -0.178323764924E+04    0.73322E-04   -0.24844E-04   992   0.151E-02
    2 T=  4069. E= -.16559399E+04 F= -.17832376E+04 E0= -.17832376E+04  EK= 0.12728E+03 SP= 0.16E-01 SK= 0.30E-03
       N       E                     dE             d eps       ncg     rms          rms(c)
DAV:   1    -0.178463489098E+04   -0.13972E+01   -0.74301E-01  1848   0.370E+00    0.652E-01
RMM:   2    -0.178469760522E+04   -0.62714E-01   -0.66916E-01  1568   0.976E-01    0.446E-01
RMM:   3    -0.178469248932E+04    0.51159E-02   -0.11033E-02  1675   0.953E-02    0.309E-01
RMM:   4    -0.178469112211E+04    0.13672E-02   -0.58954E-03  1562   0.723E-02    0.123E-01
RMM:   5    -0.178469109778E+04    0.24328E-04   -0.20930E-04   949   0.148E-02
    3 T=  4113. E= -.16559495E+04 F= -.17846911E+04 E0= -.17846911E+04  EK= 0.12865E+03 SP= 0.86E-01 SK= 0.21E-02
       N       E                     dE             d eps       ncg     rms          rms(c)
DAV:   1    -0.178601412655E+04   -0.13230E+01   -0.25104E-01  2800   0.332E+00    0.199E-01
RMM:   2    -0.178603093805E+04   -0.16811E-01   -0.17247E-01  1568   0.416E-01    0.122E-01
RMM:   3    -0.178603114623E+04   -0.20818E-03   -0.75582E-03  1788   0.687E-02    0.919E-02
RMM:   4    -0.178603104064E+04    0.10559E-03   -0.43818E-04  1170   0.183E-02    0.556E-02
RMM:   5    -0.178603101965E+04    0.20996E-04   -0.91543E-05   920   0.904E-03
    4 T=  4150. E= -.16559590E+04 F= -.17860310E+04 E0= -.17860310E+04  EK= 0.12982E+03 SP= 0.24E+00 SK= 0.75E-02
       N       E                     dE             d eps       ncg     rms          rms(c)
DAV:   1    -0.178720986133E+04   -0.11788E+01   -0.10241E-01  2960   0.332E+00    0.184E-01
RMM:   2    -0.178722032188E+04   -0.10461E-01   -0.11020E-01  1568   0.334E-01    0.792E-02
RMM:   3    -0.178722064582E+04   -0.32394E-03   -0.56688E-03  1775   0.556E-02    0.561E-02
RMM:   4    -0.178722060211E+04    0.43711E-04   -0.24944E-04  1031   0.144E-02
    5 T=  4179. E= -.16559680E+04 F= -.17872206E+04 E0= -.17872206E+04  EK= 0.13072E+03 SP= 0.51E+00 SK= 0.19E-01
       N       E                     dE             d eps       ncg     rms          rms(c)
DAV:   1    -0.178822179158E+04   -0.10011E+01   -0.87319E-02  2840   0.333E+00    0.124E-01
RMM:   2    -0.178823307906E+04   -0.11287E-01   -0.11558E-01  1568   0.343E-01    0.101E-01
RMM:   3    -0.178823331454E+04   -0.23548E-03   -0.54339E-03  1765   0.560E-02    0.814E-02
RMM:   4    -0.178823323370E+04    0.80836E-04   -0.27693E-04  1072   0.143E-02
    6 T=  4197. E= -.16559753E+04 F= -.17882332E+04 E0= -.17882332E+04  EK= 0.13129E+03 SP= 0.93E+00 SK= 0.38E-01
       N       E                     dE             d eps       ncg     rms          rms(c)
DAV:   1    -0.178904086853E+04   -0.80755E+00   -0.77719E-02  2896   0.334E+00    0.911E-02
RMM:   2    -0.178905047810E+04   -0.96096E-02   -0.96516E-02  1568   0.316E-01    0.961E-02
RMM:   3    -0.178905077506E+04   -0.29696E-03   -0.49840E-03  1767   0.524E-02    0.816E-02
RMM:   4    -0.178905072447E+04    0.50592E-04   -0.25813E-04  1039   0.145E-02
    7 T=  4204. E= -.16559809E+04 F= -.17890507E+04 E0= -.17890507E+04  EK= 0.13151E+03 SP= 0.15E+01 SK= 0.67E-01
       N       E                     dE             d eps       ncg     rms          rms(c)
DAV:   1    -0.178965317622E+04   -0.60240E+00   -0.77227E-02  2872   0.333E+00    0.177E-01
RMM:   2    -0.178966313364E+04   -0.99574E-02   -0.10604E-01  1568   0.327E-01    0.735E-02
RMM:   3    -0.178966344264E+04   -0.30899E-03   -0.51905E-03  1767   0.538E-02    0.460E-02
RMM:   4    -0.178966341074E+04    0.31894E-04   -0.25596E-04  1040   0.144E-02
    8 T=  4200. E= -.16559824E+04 F= -.17896634E+04 E0= -.17896634E+04  EK= 0.13137E+03 SP= 0.22E+01 SK= 0.10E+00
       N       E                     dE             d eps       ncg     rms          rms(c)
DAV:   1    -0.179005973477E+04   -0.39629E+00   -0.72252E-02  2904   0.334E+00    0.110E-01
RMM:   2    -0.179006997237E+04   -0.10238E-01   -0.10381E-01  1568   0.322E-01    0.849E-02
RMM:   3    -0.179007027517E+04   -0.30279E-03   -0.53450E-03  1775   0.538E-02    0.680E-02
RMM:   4    -0.179007022125E+04    0.53913E-04   -0.21441E-04  1026   0.127E-02
    9 T=  4183. E= -.16559814E+04 F= -.17900702E+04 E0= -.17900702E+04  EK= 0.13086E+03 SP= 0.31E+01 SK= 0.14E+00
       N       E                     dE             d eps       ncg     rms          rms(c)
DAV:   1    -0.179026882878E+04   -0.19855E+00   -0.80108E-02  2856   0.332E+00    0.865E-02
RMM:   2    -0.179027873521E+04   -0.99064E-02   -0.99421E-02  1568   0.315E-01    0.886E-02
RMM:   3    -0.179027905960E+04   -0.32439E-03   -0.52583E-03  1763   0.534E-02    0.756E-02
RMM:   4    -0.179027900465E+04    0.54952E-04   -0.24002E-04  1039   0.135E-02
   10 T=  4156. E= -.16559789E+04 F= -.17902790E+04 E0= -.17902790E+04  EK= 0.13001E+03 SP= 0.41E+01 SK= 0.19E+00
       N       E                     dE             d eps       ncg     rms          rms(c)
DAV:   1    -0.179029453840E+04   -0.15479E-01   -0.73191E-02  2856   0.329E+00    0.150E-01
RMM:   2    -0.179030442177E+04   -0.98834E-02   -0.10319E-01  1568   0.318E-01    0.826E-02
RMM:   3    -0.179030474472E+04   -0.32295E-03   -0.53217E-03  1764   0.538E-02    0.566E-02
RMM:   4    -0.179030470624E+04    0.38482E-04   -0.28866E-04  1063   0.152E-02
   11 T=  4120. E= -.16559738E+04 F= -.17903047E+04 E0= -.17903047E+04  EK= 0.12887E+03 SP= 0.52E+01 SK= 0.23E+00
       N       E                     dE             d eps       ncg     rms          rms(c)
DAV:   1    -0.179015924169E+04    0.14550E+00   -0.71217E-02  2832   0.327E+00    0.122E-01
RMM:   2    -0.179016940548E+04   -0.10164E-01   -0.10408E-01  1568   0.319E-01    0.822E-02
RMM:   3    -0.179016970421E+04   -0.29873E-03   -0.53003E-03  1764   0.538E-02    0.613E-02
RMM:   4    -0.179016965225E+04    0.51960E-04   -0.23809E-04  1030   0.135E-02
   12 T=  4075. E= -.16559660E+04 F= -.17901697E+04 E0= -.17901697E+04  EK= 0.12748E+03 SP= 0.65E+01 SK= 0.26E+00
       N       E                     dE             d eps       ncg     rms          rms(c)
DAV:   1    -0.178989478366E+04    0.27492E+00   -0.81193E-02  2904   0.323E+00    0.866E-02
RMM:   2    -0.178990430633E+04   -0.95227E-02   -0.95571E-02  1568   0.310E-01    0.889E-02
RMM:   3    -0.178990459133E+04   -0.28500E-03   -0.49228E-03  1763   0.521E-02    0.750E-02
RMM:   4    -0.178990453305E+04    0.58279E-04   -0.23181E-04  1026   0.135E-02
   13 T=  4026. E= -.16559572E+04 F= -.17899045E+04 E0= -.17899045E+04  EK= 0.12592E+03 SP= 0.78E+01 SK= 0.27E+00
       N       E                     dE             d eps       ncg     rms          rms(c)
DAV:   1    -0.178953668779E+04    0.36790E+00   -0.88290E-02  2832   0.319E+00    0.132E-01
RMM:   2    -0.178954612891E+04   -0.94411E-02   -0.97444E-02  1568   0.314E-01    0.851E-02
RMM:   3    -0.178954641435E+04   -0.28545E-03   -0.49379E-03  1774   0.525E-02    0.619E-02
RMM:   4    -0.178954637172E+04    0.42635E-04   -0.27171E-04  1048   0.149E-02
   14 T=  3973. E= -.16559473E+04 F= -.17895464E+04 E0= -.17895464E+04  EK= 0.12427E+03 SP= 0.91E+01 SK= 0.27E+00
       N       E                     dE             d eps       ncg     rms          rms(c)
DAV:   1    -0.178912493737E+04    0.42148E+00   -0.97624E-02  2800   0.316E+00    0.140E-01
RMM:   2    -0.178913506396E+04   -0.10127E-01   -0.10470E-01  1568   0.322E-01    0.803E-02
RMM:   3    -0.178913533813E+04   -0.27416E-03   -0.51254E-03  1771   0.540E-02    0.577E-02
RMM:   4    -0.178913529423E+04    0.43895E-04   -0.24429E-04  1042   0.137E-02
   15 T=  3919. E= -.16559365E+04 F= -.17891353E+04 E0= -.17891353E+04  EK= 0.12260E+03 SP= 0.10E+02 SK= 0.25E+00
       N       E                     dE             d eps       ncg     rms          rms(c)
DAV:   1    -0.178870379060E+04    0.43155E+00   -0.87498E-02  2824   0.312E+00    0.835E-02
RMM:   2    -0.178871383982E+04   -0.10049E-01   -0.10085E-01  1568   0.312E-01    0.930E-02
RMM:   3    -0.178871414330E+04   -0.30348E-03   -0.52331E-03  1774   0.535E-02    0.791E-02
RMM:   4    -0.178871407697E+04    0.66333E-04   -0.23015E-04  1028   0.134E-02
   16 T=  3868. E= -.16559266E+04 F= -.17887141E+04 E0= -.17887141E+04  EK= 0.12100E+03 SP= 0.12E+02 SK= 0.22E+00
       N       E                     dE             d eps       ncg     rms          rms(c)
DAV:   1    -0.178831573412E+04    0.39841E+00   -0.97283E-02  2800   0.307E+00    0.121E-01
RMM:   2    -0.178832543631E+04   -0.97022E-02   -0.99074E-02  1568   0.311E-01    0.872E-02
RMM:   3    -0.178832573973E+04   -0.30342E-03   -0.49793E-03  1789   0.531E-02    0.660E-02
RMM:   4    -0.178832569951E+04    0.40214E-04   -0.27723E-04  1045   0.152E-02
   17 T=  3821. E= -.16559172E+04 F= -.17883257E+04 E0= -.17883257E+04  EK= 0.11954E+03 SP= 0.13E+02 SK= 0.18E+00
       N       E                     dE             d eps       ncg     rms          rms(c)
DAV:   1    -0.178800256763E+04    0.32317E+00   -0.99015E-02  2808   0.304E+00    0.155E-01
RMM:   2    -0.178801202577E+04   -0.94581E-02   -0.99352E-02  1568   0.315E-01    0.755E-02
RMM:   3    -0.178801228195E+04   -0.25618E-03   -0.47436E-03  1781   0.525E-02    0.506E-02
RMM:   4    -0.178801224373E+04    0.38217E-04   -0.23909E-04  1028   0.139E-02
   18 T=  3782. E= -.16559089E+04 F= -.17880122E+04 E0= -.17880122E+04  EK= 0.11830E+03 SP= 0.14E+02 SK= 0.13E+00
       N       E                     dE             d eps       ncg     rms          rms(c)
DAV:   1    -0.178780174924E+04    0.21053E+00   -0.99593E-02  2832   0.301E+00    0.872E-02
RMM:   2    -0.178781123132E+04   -0.94821E-02   -0.95277E-02  1568   0.307E-01    0.885E-02
RMM:   3    -0.178781148912E+04   -0.25780E-03   -0.47089E-03  1782   0.520E-02    0.744E-02
RMM:   4    -0.178781143069E+04    0.58432E-04   -0.21619E-04  1006   0.131E-02
   19 T=  3751. E= -.16559028E+04 F= -.17878114E+04 E0= -.17878114E+04  EK= 0.11734E+03 SP= 0.14E+02 SK= 0.84E-01
       N       E                     dE             d eps       ncg     rms          rms(c)
DAV:   1    -0.178774612350E+04    0.65366E-01   -0.90163E-02  2816   0.297E+00    0.105E-01
RMM:   2    -0.178775506191E+04   -0.89384E-02   -0.90788E-02  1568   0.298E-01    0.863E-02
RMM:   3    -0.178775533740E+04   -0.27549E-03   -0.45811E-03  1781   0.510E-02    0.680E-02
RMM:   4    -0.178775529829E+04    0.39113E-04   -0.24840E-04  1020   0.144E-02
   20 T=  3731. E= -.16558990E+04 F= -.17877553E+04 E0= -.17877553E+04  EK= 0.11670E+03 SP= 0.15E+02 SK= 0.44E-01
       N       E                     dE             d eps       ncg     rms          rms(c)
DAV:   1    -0.178785920071E+04   -0.10386E+00   -0.89214E-02  2832   0.296E+00    0.154E-01
RMM:   2    -0.178786802367E+04   -0.88230E-02   -0.92910E-02  1568   0.303E-01    0.717E-02
RMM:   3    -0.178786828729E+04   -0.26362E-03   -0.45845E-03  1778   0.515E-02    0.477E-02
RMM:   4    -0.178786825567E+04    0.31619E-04   -0.22898E-04  1015   0.136E-02
   21 T=  3722. E= -.16558974E+04 F= -.17878683E+04 E0= -.17878683E+04  EK= 0.11643E+03 SP= 0.16E+02 SK= 0.15E-01
       N       E                     dE             d eps       ncg     rms          rms(c)
DAV:   1    -0.178815463054E+04   -0.28634E+00   -0.96615E-02  2808   0.295E+00    0.877E-02
RMM:   2    -0.178816368585E+04   -0.90553E-02   -0.91189E-02  1568   0.301E-01    0.869E-02
RMM:   3    -0.178816393814E+04   -0.25229E-03   -0.45605E-03  1786   0.512E-02    0.727E-02
RMM:   4    -0.178816388161E+04    0.56524E-04   -0.20489E-04   997   0.127E-02
   22 T=  3725. E= -.16558991E+04 F= -.17881639E+04 E0= -.17881639E+04  EK= 0.11654E+03 SP= 0.16E+02 SK= 0.15E-02
       N       E                     dE             d eps       ncg     rms          rms(c)
DAV:   1    -0.178863653306E+04   -0.47259E+00   -0.70082E-02  2800   0.294E+00    0.867E-02
RMM:   2    -0.178864493761E+04   -0.84045E-02   -0.84764E-02  1568   0.284E-01    0.809E-02
RMM:   3    -0.178864525125E+04   -0.31363E-03   -0.46431E-03  1776   0.502E-02    0.662E-02
RMM:   4    -0.178864521343E+04    0.37813E-04   -0.22547E-04  1010   0.136E-02
   23 T=  3741. E= -.16559040E+04 F= -.17886452E+04 E0= -.17886452E+04  EK= 0.11702E+03 SP= 0.16E+02 SK= 0.20E-02
       N       E                     dE             d eps       ncg     rms          rms(c)
DAV:   1    -0.178929504322E+04   -0.64979E+00   -0.63242E-02  2888   0.295E+00    0.155E-01
RMM:   2    -0.178930341741E+04   -0.83742E-02   -0.88561E-02  1568   0.292E-01    0.697E-02
RMM:   3    -0.178930371094E+04   -0.29353E-03   -0.46453E-03  1789   0.510E-02    0.436E-02
RMM:   4    -0.178930368428E+04    0.26658E-04   -0.22987E-04  1020   0.136E-02
   24 T=  3768. E= -.16559113E+04 F= -.17893037E+04 E0= -.17893037E+04  EK= 0.11787E+03 SP= 0.16E+02 SK= 0.15E-01
       N       E                     dE             d eps       ncg     rms          rms(c)
DAV:   1    -0.179011091160E+04   -0.80720E+00   -0.70224E-02  2816   0.297E+00    0.898E-02
RMM:   2    -0.179011931812E+04   -0.84065E-02   -0.84950E-02  1568   0.292E-01    0.844E-02
RMM:   3    -0.179011956392E+04   -0.24580E-03   -0.43825E-03  1773   0.497E-02    0.685E-02
RMM:   4    -0.179011951265E+04    0.51268E-04   -0.19307E-04   990   0.124E-02
   25 T=  3806. E= -.16559216E+04 F= -.17901195E+04 E0= -.17901195E+04  EK= 0.11905E+03 SP= 0.15E+02 SK= 0.35E-01
       N       E                     dE             d eps       ncg     rms          rms(c)
DAV:   1    -0.179105381916E+04   -0.93426E+00   -0.63917E-02  2840   0.299E+00    0.800E-02
RMM:   2    -0.179106165885E+04   -0.78397E-02   -0.78853E-02  1568   0.281E-01    0.826E-02
RMM:   3    -0.179106194647E+04   -0.28762E-03   -0.43501E-03  1767   0.486E-02    0.692E-02
RMM:   4    -0.179106190655E+04    0.39925E-04   -0.20969E-04   995   0.132E-02
   26 T=  3852. E= -.16559342E+04 F= -.17910619E+04 E0= -.17910619E+04  EK= 0.12050E+03 SP= 0.15E+02 SK= 0.58E-01
       N       E                     dE             d eps       ncg     rms          rms(c)
DAV:   1    -0.179208345109E+04   -0.10215E+01   -0.59924E-02  2896   0.301E+00    0.149E-01
RMM:   2    -0.179209142109E+04   -0.79700E-02   -0.84273E-02  1568   0.292E-01    0.756E-02
RMM:   3    -0.179209169623E+04   -0.27514E-03   -0.44727E-03  1778   0.498E-02    0.484E-02
RMM:   4    -0.179209166710E+04    0.29130E-04   -0.24309E-04  1022   0.142E-02
   27 T=  3905. E= -.16559481E+04 F= -.17920917E+04 E0= -.17920917E+04  EK= 0.12215E+03 SP= 0.14E+02 SK= 0.77E-01
       N       E                     dE             d eps       ncg     rms          rms(c)
DAV:   1    -0.179315435120E+04   -0.10627E+01   -0.66210E-02  2872   0.305E+00    0.104E-01
RMM:   2    -0.179316315795E+04   -0.88068E-02   -0.89602E-02  1568   0.301E-01    0.863E-02
RMM:   3    -0.179316340679E+04   -0.24884E-03   -0.45517E-03  1787   0.507E-02    0.667E-02
RMM:   4    -0.179316335527E+04    0.51521E-04   -0.21151E-04  1007   0.129E-02
   28 T=  3961. E= -.16559631E+04 F= -.17931634E+04 E0= -.17931634E+04  EK= 0.12392E+03 SP= 0.13E+02 SK= 0.89E-01
       N       E                     dE             d eps       ncg     rms          rms(c)
DAV:   1    -0.179421974152E+04   -0.10563E+01   -0.71360E-02  2848   0.308E+00    0.810E-02
RMM:   2    -0.179422851320E+04   -0.87717E-02   -0.88085E-02  1568   0.299E-01    0.894E-02
RMM:   3    -0.179422880986E+04   -0.29666E-03   -0.46790E-03  1788   0.510E-02    0.755E-02
RMM:   4    -0.179422875734E+04    0.52522E-04   -0.23028E-04  1015   0.137E-02
   29 T=  4019. E= -.16559789E+04 F= -.17942288E+04 E0= -.17942288E+04  EK= 0.12572E+03 SP= 0.12E+02 SK= 0.91E-01
       N       E                     dE             d eps       ncg     rms          rms(c)
DAV:   1    -0.179522996733E+04   -0.10012E+01   -0.89165E-02  2832   0.311E+00    0.149E-01
RMM:   2    -0.179523944662E+04   -0.94793E-02   -0.99067E-02  1568   0.317E-01    0.865E-02
RMM:   3    -0.179523974217E+04   -0.29554E-03   -0.50235E-03  1791   0.535E-02    0.593E-02
RMM:   4    -0.179523970549E+04    0.36673E-04   -0.29334E-04  1068   0.155E-02
   30 T=  4075. E= -.16559938E+04 F= -.17952397E+04 E0= -.17952397E+04  EK= 0.12747E+03 SP= 0.12E+02 SK= 0.83E-01
       N       E                     dE             d eps       ncg     rms          rms(c)
DAV:   1    -0.179613972946E+04   -0.89999E+00   -0.91515E-02  2816   0.315E+00    0.125E-01
RMM:   2    -0.179614986209E+04   -0.10133E-01   -0.10397E-01  1568   0.324E-01    0.893E-02
RMM:   3    -0.179615013124E+04   -0.26915E-03   -0.51472E-03  1785   0.540E-02    0.665E-02
RMM:   4    -0.179615007746E+04    0.53778E-04   -0.25557E-04  1037   0.140E-02
   31 T=  4126. E= -.16560074E+04 F= -.17961501E+04 E0= -.17961501E+04  EK= 0.12907E+03 SP= 0.11E+02 SK= 0.66E-01
       N       E                     dE             d eps       ncg     rms          rms(c)
DAV:   1    -0.179690962964E+04   -0.75950E+00   -0.85332E-02  2816   0.318E+00    0.841E-02
RMM:   2    -0.179691964637E+04   -0.10017E-01   -0.10050E-01  1568   0.316E-01    0.930E-02
RMM:   3    -0.179691996520E+04   -0.31883E-03   -0.52690E-03  1786   0.538E-02    0.788E-02
RMM:   4    -0.179691990402E+04    0.61174E-04   -0.25799E-04  1041   0.141E-02
   32 T=  4170. E= -.16560196E+04 F= -.17969199E+04 E0= -.17969199E+04  EK= 0.13044E+03 SP= 0.10E+02 SK= 0.44E-01
       N       E                     dE             d eps       ncg     rms          rms(c)
DAV:   1    -0.179750896004E+04   -0.58899E+00   -0.87795E-02  2800   0.319E+00    0.136E-01
RMM:   2    -0.179751895742E+04   -0.99974E-02   -0.10319E-01  1568   0.321E-01    0.893E-02
RMM:   3    -0.179751927335E+04   -0.31592E-03   -0.53129E-03  1786   0.545E-02    0.642E-02
RMM:   4    -0.179751923215E+04    0.41197E-04   -0.31729E-04  1083   0.160E-02
   33 T=  4204. E= -.16560293E+04 F= -.17975192E+04 E0= -.17975192E+04  EK= 0.13150E+03 SP= 0.10E+02 SK= 0.23E-01
       N       E                     dE             d eps       ncg     rms          rms(c)
DAV:   1    -0.179791684900E+04   -0.39758E+00   -0.98952E-02  2824   0.322E+00    0.142E-01
RMM:   2    -0.179792741972E+04   -0.10571E-01   -0.10948E-01  1568   0.332E-01    0.822E-02
RMM:   3    -0.179792771908E+04   -0.29937E-03   -0.54625E-03  1789   0.558E-02    0.586E-02
RMM:   4    -0.179792767123E+04    0.47850E-04   -0.26689E-04  1056   0.143E-02
   34 T=  4227. E= -.16560360E+04 F= -.17979277E+04 E0= -.17979277E+04  EK= 0.13222E+03 SP= 0.97E+01 SK= 0.73E-02
       N       E                     dE             d eps       ncg     rms          rms(c)
DAV:   1    -0.179812494389E+04   -0.19722E+00   -0.10234E-01  2808   0.324E+00    0.903E-02
RMM:   2    -0.179813595963E+04   -0.11016E-01   -0.11049E-01  1568   0.332E-01    0.943E-02
RMM:   3    -0.179813627989E+04   -0.32026E-03   -0.56766E-03  1790   0.562E-02    0.798E-02
RMM:   4    -0.179813621147E+04    0.68421E-04   -0.26599E-04  1062   0.142E-02
   35 T=  4238. E= -.16560401E+04 F= -.17981362E+04 E0= -.17981362E+04  EK= 0.13256E+03 SP= 0.95E+01 SK= 0.17E-03
       N       E                     dE             d eps       ncg     rms          rms(c)
DAV:   1    -0.179813785278E+04   -0.15729E-02   -0.11045E-01  2800   0.323E+00    0.125E-01
RMM:   2    -0.179814900678E+04   -0.11154E-01   -0.11372E-01  1568   0.337E-01    0.920E-02
RMM:   3    -0.179814934940E+04   -0.34262E-03   -0.57923E-03  1797   0.572E-02    0.705E-02
RMM:   4    -0.179814930354E+04    0.45859E-04   -0.32738E-04  1088   0.161E-02
   36 T=  4236. E= -.16560413E+04 F= -.17981493E+04 E0= -.17981493E+04  EK= 0.13251E+03 SP= 0.96E+01 SK= 0.37E-02
       N       E                     dE             d eps       ncg     rms          rms(c)
DAV:   1    -0.179796943979E+04    0.17991E+00   -0.10915E-01  2800   0.324E+00    0.153E-01
RMM:   2    -0.179798110486E+04   -0.11665E-01   -0.12113E-01  1568   0.348E-01    0.837E-02
RMM:   3    -0.179798143964E+04   -0.33478E-03   -0.59750E-03  1795   0.587E-02    0.604E-02
RMM:   4    -0.179798139108E+04    0.48561E-04   -0.30723E-04  1084   0.152E-02
   37 T=  4223. E= -.16560392E+04 F= -.17979814E+04 E0= -.17979814E+04  EK= 0.13208E+03 SP= 0.98E+01 SK= 0.17E-01
       N       E                     dE             d eps       ncg     rms          rms(c)
DAV:   1    -0.179764478260E+04    0.33666E+00   -0.95998E-02  2816   0.325E+00    0.957E-02
RMM:   2    -0.179765639310E+04   -0.11611E-01   -0.11653E-01  1568   0.340E-01    0.936E-02
RMM:   3    -0.179765676933E+04   -0.37624E-03   -0.62262E-03  1789   0.582E-02    0.786E-02
RMM:   4    -0.179765670390E+04    0.65437E-04   -0.28340E-04  1076   0.144E-02
   38 T=  4198. E= -.16560350E+04 F= -.17976567E+04 E0= -.17976567E+04  EK= 0.13133E+03 SP= 0.10E+02 SK= 0.39E-01
       N       E                     dE             d eps       ncg     rms          rms(c)
DAV:   1    -0.179719743054E+04    0.45934E+00   -0.10684E-01  2816   0.323E+00    0.126E-01
RMM:   2    -0.179720879566E+04   -0.11365E-01   -0.11564E-01  1568   0.342E-01    0.908E-02
RMM:   3    -0.179720916731E+04   -0.37165E-03   -0.60359E-03  1801   0.581E-02    0.703E-02
RMM:   4    -0.179720912119E+04    0.46124E-04   -0.31288E-04  1074   0.156E-02
   39 T=  4165. E= -.16560287E+04 F= -.17972091E+04 E0= -.17972091E+04  EK= 0.13030E+03 SP= 0.11E+02 SK= 0.64E-01
       N       E                     dE             d eps       ncg     rms          rms(c)
DAV:   1    -0.179666694440E+04    0.54222E+00   -0.10382E-01  2800   0.322E+00    0.148E-01
RMM:   2    -0.179667835528E+04   -0.11411E-01   -0.11819E-01  1568   0.348E-01    0.870E-02
RMM:   3    -0.179667868578E+04   -0.33050E-03   -0.58671E-03  1795   0.579E-02    0.641E-02
RMM:   4    -0.179667863299E+04    0.52791E-04   -0.29593E-04  1075   0.151E-02
   40 T=  4126. E= -.16560205E+04 F= -.17966786E+04 E0= -.17966786E+04  EK= 0.12906E+03 SP= 0.12E+02 SK= 0.89E-01
       N       E                     dE             d eps       ncg     rms          rms(c)
DAV:   1    -0.179609527668E+04    0.58341E+00   -0.95018E-02  2784   0.321E+00    0.961E-02
RMM:   2    -0.179610659422E+04   -0.11318E-01   -0.11369E-01  1568   0.340E-01    0.946E-02
RMM:   3    -0.179610697003E+04   -0.37581E-03   -0.61496E-03  1794   0.580E-02    0.792E-02
RMM:   4    -0.179610690700E+04    0.63030E-04   -0.27429E-04  1063   0.143E-02
   41 T=  4082. E= -.16560123E+04 F= -.17961069E+04 E0= -.17961069E+04  EK= 0.12768E+03 SP= 0.12E+02 SK= 0.11E+00
       N       E                     dE             d eps       ncg     rms          rms(c)
DAV:   1    -0.179552338185E+04    0.58359E+00   -0.89839E-02  2792   0.318E+00    0.119E-01
RMM:   2    -0.179553387378E+04   -0.10492E-01   -0.10666E-01  1568   0.331E-01    0.842E-02
RMM:   3    -0.179553424057E+04   -0.36679E-03   -0.56887E-03  1799   0.561E-02    0.650E-02
RMM:   4    -0.179553420089E+04    0.39685E-04   -0.27661E-04  1054   0.147E-02
   42 T=  4036. E= -.16560035E+04 F= -.17955342E+04 E0= -.17955342E+04  EK= 0.12625E+03 SP= 0.13E+02 SK= 0.12E+00
       N       E                     dE             d eps       ncg     rms          rms(c)
DAV:   1    -0.179498561490E+04    0.54863E+00   -0.90593E-02  2856   0.317E+00    0.142E-01
RMM:   2    -0.179499635129E+04   -0.10736E-01   -0.11090E-01  1568   0.336E-01    0.789E-02
RMM:   3    -0.179499670014E+04   -0.34884E-03   -0.57667E-03  1805   0.567E-02    0.576E-02
RMM:   4    -0.179499665638E+04    0.43755E-04   -0.25721E-04  1054   0.140E-02
   43 T=  3991. E= -.16559950E+04 F= -.17949967E+04 E0= -.17949967E+04  EK= 0.12484E+03 SP= 0.14E+02 SK= 0.12E+00
       N       E                     dE             d eps       ncg     rms          rms(c)
DAV:   1    -0.179451094935E+04    0.48575E+00   -0.86637E-02  2840   0.316E+00    0.885E-02
RMM:   2    -0.179452134582E+04   -0.10396E-01   -0.10429E-01  1568   0.326E-01    0.880E-02
RMM:   3    -0.179452169781E+04   -0.35199E-03   -0.56540E-03  1795   0.556E-02    0.750E-02
RMM:   4    -0.179452164288E+04    0.54928E-04   -0.24131E-04  1039   0.133E-02
   44 T=  3948. E= -.16559883E+04 F= -.17945216E+04 E0= -.17945216E+04  EK= 0.12350E+03 SP= 0.15E+02 SK= 0.12E+00
       N       E                     dE             d eps       ncg     rms          rms(c)
DAV:   1    -0.179411483823E+04    0.40686E+00   -0.92898E-02  2824   0.313E+00    0.111E-01
RMM:   2    -0.179412504842E+04   -0.10210E-01   -0.10345E-01  1568   0.323E-01    0.827E-02
RMM:   3    -0.179412541706E+04   -0.36864E-03   -0.56467E-03  1802   0.556E-02    0.655E-02
RMM:   4    -0.179412537732E+04    0.39748E-04   -0.25337E-04  1037   0.141E-02
   45 T=  3909. E= -.16559827E+04 F= -.17941254E+04 E0= -.17941254E+04  EK= 0.12229E+03 SP= 0.16E+02 SK= 0.10E+00
       N       E                     dE             d eps       ncg     rms          rms(c)
DAV:   1    -0.179380339079E+04    0.32203E+00   -0.10429E-01  2816   0.312E+00    0.143E-01
RMM:   2    -0.179381398931E+04   -0.10599E-01   -0.10947E-01  1568   0.332E-01    0.777E-02
RMM:   3    -0.179381433682E+04   -0.34751E-03   -0.57015E-03  1799   0.567E-02    0.567E-02
RMM:   4    -0.179381429485E+04    0.41971E-04   -0.26438E-04  1050   0.143E-02
   46 T=  3876. E= -.16559784E+04 F= -.17938143E+04 E0= -.17938143E+04  EK= 0.12124E+03 SP= 0.17E+02 SK= 0.83E-01
       N       E                     dE             d eps       ncg     rms          rms(c)
DAV:   1    -0.179357523559E+04    0.23910E+00   -0.75580E-02  2832   0.312E+00    0.845E-02
RMM:   2    -0.179358536726E+04   -0.10132E-01   -0.10170E-01  1568   0.314E-01    0.819E-02
RMM:   3    -0.179358575457E+04   -0.38731E-03   -0.57930E-03  1795   0.551E-02    0.689E-02
RMM:   4    -0.179358570589E+04    0.48678E-04   -0.21892E-04  1028   0.127E-02
   47 T=  3848. E= -.16559758E+04 F= -.17935857E+04 E0= -.17935857E+04  EK= 0.12037E+03 SP= 0.17E+02 SK= 0.60E-01
       N       E                     dE             d eps       ncg     rms          rms(c)
DAV:   1    -0.179342059325E+04    0.16516E+00   -0.87586E-02  2832   0.310E+00    0.111E-01
RMM:   2    -0.179343021373E+04   -0.96205E-02   -0.97562E-02  1568   0.313E-01    0.826E-02
RMM:   3    -0.179343055038E+04   -0.33665E-03   -0.52902E-03  1786   0.536E-02    0.647E-02
RMM:   4    -0.179343050715E+04    0.43234E-04   -0.26955E-04  1042   0.148E-02
   48 T=  3826. E= -.16559744E+04 F= -.17934305E+04 E0= -.17934305E+04  EK= 0.11969E+03 SP= 0.18E+02 SK= 0.38E-01
       N       E                     dE             d eps       ncg     rms          rms(c)
DAV:   1    -0.179332703877E+04    0.10351E+00   -0.87267E-02  2856   0.309E+00    0.132E-01
RMM:   2    -0.179333627783E+04   -0.92391E-02   -0.95492E-02  1568   0.315E-01    0.786E-02
RMM:   3    -0.179333655863E+04   -0.28079E-03   -0.48185E-03  1784   0.521E-02    0.575E-02
RMM:   4    -0.179333651625E+04    0.42370E-04   -0.23287E-04  1021   0.137E-02
   49 T=  3810. E= -.16559737E+04 F= -.17933365E+04 E0= -.17933365E+04  EK= 0.11919E+03 SP= 0.18E+02 SK= 0.19E-01
       N       E                     dE             d eps       ncg     rms          rms(c)
DAV:   1    -0.179328108090E+04    0.55478E-01   -0.90781E-02  2832   0.310E+00    0.926E-02
RMM:   2    -0.179329065944E+04   -0.95785E-02   -0.96515E-02  1568   0.314E-01    0.859E-02
RMM:   3    -0.179329096491E+04   -0.30547E-03   -0.50807E-03  1796   0.529E-02    0.708E-02
RMM:   4    -0.179329090900E+04    0.55913E-04   -0.23049E-04  1023   0.134E-02
   50 T=  3801. E= -.16559743E+04 F= -.17932909E+04 E0= -.17932909E+04  EK= 0.11889E+03 SP= 0.18E+02 SK= 0.61E-02
       N       E                     dE             d eps       ncg     rms          rms(c)
DAV:   1    -0.179327208598E+04    0.18879E-01   -0.85072E-02  2832   0.309E+00    0.987E-02
RMM:   2    -0.179328147919E+04   -0.93932E-02   -0.94887E-02  1568   0.309E-01    0.854E-02
RMM:   3    -0.179328180039E+04   -0.32120E-03   -0.50698E-03  1796   0.525E-02    0.682E-02
RMM:   4    -0.179328175318E+04    0.47214E-04   -0.24727E-04  1030   0.141E-02
   51 T=  3797. E= -.16559758E+04 F= -.17932818E+04 E0= -.17932818E+04  EK= 0.11877E+03 SP= 0.19E+02 SK= 0.24E-03
       N       E                     dE             d eps       ncg     rms          rms(c)
DAV:   1    -0.179328953295E+04   -0.77326E-02   -0.93432E-02  2864   0.309E+00    0.138E-01
RMM:   2    -0.179329914385E+04   -0.96109E-02   -0.99440E-02  1568   0.318E-01    0.788E-02
RMM:   3    -0.179329942879E+04   -0.28494E-03   -0.49101E-03  1788   0.527E-02    0.559E-02
RMM:   4    -0.179329938713E+04    0.41665E-04   -0.26645E-04  1039   0.147E-02
   52 T=  3799. E= -.16559779E+04 F= -.17932994E+04 E0= -.17932994E+04  EK= 0.11882E+03 SP= 0.18E+02 SK= 0.22E-02
       N       E                     dE             d eps       ncg     rms          rms(c)
DAV:   1    -0.179332575456E+04   -0.26326E-01   -0.11041E-01  2824   0.310E+00    0.102E-01
RMM:   2    -0.179333582444E+04   -0.10070E-01   -0.10183E-01  1568   0.323E-01    0.898E-02
RMM:   3    -0.179333607644E+04   -0.25200E-03   -0.48941E-03  1789   0.531E-02    0.721E-02
RMM:   4    -0.179333601741E+04    0.59024E-04   -0.23521E-04  1026   0.137E-02
   53 T=  3806. E= -.16559814E+04 F= -.17933360E+04 E0= -.17933360E+04  EK= 0.11904E+03 SP= 0.18E+02 SK= 0.12E-01
       N       E                     dE             d eps       ncg     rms          rms(c)
DAV:   1    -0.179337451381E+04   -0.38437E-01   -0.11093E-01  2776   0.310E+00    0.944E-02
RMM:   2    -0.179338446187E+04   -0.99481E-02   -0.10026E-01  1568   0.318E-01    0.939E-02
RMM:   3    -0.179338474820E+04   -0.28632E-03   -0.50393E-03  1795   0.532E-02    0.778E-02
RMM:   4    -0.179338468904E+04    0.59159E-04   -0.27703E-04  1045   0.150E-02
   54 T=  3817. E= -.16559858E+04 F= -.17933847E+04 E0= -.17933847E+04  EK= 0.11941E+03 SP= 0.18E+02 SK= 0.28E-01
       N       E                     dE             d eps       ncg     rms          rms(c)
DAV:   1    -0.179342932994E+04   -0.44582E-01   -0.10728E-01  2816   0.310E+00    0.134E-01
RMM:   2    -0.179343919370E+04   -0.98638E-02   -0.10194E-01  1568   0.321E-01    0.824E-02
RMM:   3    -0.179343949871E+04   -0.30501E-03   -0.51299E-03  1797   0.537E-02    0.594E-02
RMM:   4    -0.179343945669E+04    0.42025E-04   -0.27096E-04  1042   0.149E-02
   55 T=  3834. E= -.16559908E+04 F= -.17934395E+04 E0= -.17934395E+04  EK= 0.11993E+03 SP= 0.17E+02 SK= 0.49E-01
       N       E                     dE             d eps       ncg     rms          rms(c)
DAV:   1    -0.179348406088E+04   -0.44562E-01   -0.95687E-02  2808   0.312E+00    0.111E-01
RMM:   2    -0.179349380921E+04   -0.97483E-02   -0.99229E-02  1568   0.317E-01    0.834E-02
RMM:   3    -0.179349409277E+04   -0.28356E-03   -0.50121E-03  1796   0.529E-02    0.643E-02
RMM:   4    -0.179349403602E+04    0.56751E-04   -0.24006E-04  1024   0.139E-02
   56 T=  3854. E= -.16559964E+04 F= -.17934940E+04 E0= -.17934940E+04  EK= 0.12057E+03 SP= 0.17E+02 SK= 0.73E-01
       N       E                     dE             d eps       ncg     rms          rms(c)
DAV:   1    -0.179353169051E+04   -0.37598E-01   -0.91563E-02  2872   0.312E+00    0.897E-02
RMM:   2    -0.179354139072E+04   -0.97002E-02   -0.97571E-02  1568   0.314E-01    0.873E-02
RMM:   3    -0.179354170369E+04   -0.31297E-03   -0.50884E-03  1798   0.527E-02    0.724E-02
RMM:   4    -0.179354164756E+04    0.56121E-04   -0.22955E-04  1008   0.136E-02
   57 T=  3878. E= -.16560029E+04 F= -.17935416E+04 E0= -.17935416E+04  EK= 0.12131E+03 SP= 0.16E+02 SK= 0.97E-01
       N       E                     dE             d eps       ncg     rms          rms(c)
DAV:   1    -0.179356699367E+04   -0.25290E-01   -0.75815E-02  2880   0.313E+00    0.121E-01
RMM:   2    -0.179357653915E+04   -0.95455E-02   -0.98088E-02  1568   0.312E-01    0.850E-02
RMM:   3    -0.179357688313E+04   -0.34398E-03   -0.53292E-03  1797   0.531E-02    0.637E-02
RMM:   4    -0.179357683469E+04    0.48442E-04   -0.28558E-04  1048   0.154E-02
   58 T=  3905. E= -.16560096E+04 F= -.17935768E+04 E0= -.17935768E+04  EK= 0.12214E+03 SP= 0.15E+02 SK= 0.12E+00
       N       E                     dE             d eps       ncg     rms          rms(c)
DAV:   1    -0.179358702160E+04   -0.10138E-01   -0.76392E-02  2880   0.315E+00    0.121E-01
RMM:   2    -0.179359599950E+04   -0.89779E-02   -0.92311E-02  1568   0.310E-01    0.788E-02
RMM:   3    -0.179359630065E+04   -0.30115E-03   -0.49145E-03  1790   0.514E-02    0.581E-02
RMM:   4    -0.179359625375E+04    0.46892E-04   -0.21411E-04   999   0.133E-02
   59 T=  3933. E= -.16560162E+04 F= -.17935963E+04 E0= -.17935963E+04  EK= 0.12303E+03 SP= 0.14E+02 SK= 0.14E+00
       N       E                     dE             d eps       ncg     rms          rms(c)
DAV:   1    -0.179358833197E+04    0.79687E-02   -0.89896E-02  2824   0.316E+00    0.915E-02
RMM:   2    -0.179359759820E+04   -0.92662E-02   -0.93360E-02  1568   0.313E-01    0.885E-02
RMM:   3    -0.179359788087E+04   -0.28266E-03   -0.48450E-03  1790   0.515E-02    0.729E-02
RMM:   4    -0.179359782078E+04    0.60087E-04   -0.22292E-04  1010   0.135E-02
   60 T=  3963. E= -.16560235E+04 F= -.17935978E+04 E0= -.17935978E+04  EK= 0.12396E+03 SP= 0.13E+02 SK= 0.15E+00
       N       E                     dE             d eps       ncg     rms          rms(c)
DAV:   1    -0.179356805151E+04    0.29829E-01   -0.83876E-02  2824   0.317E+00    0.105E-01
RMM:   2    -0.179357737470E+04   -0.93232E-02   -0.94777E-02  1568   0.313E-01    0.848E-02
RMM:   3    -0.179357770235E+04   -0.32765E-03   -0.50872E-03  1795   0.523E-02    0.665E-02
RMM:   4    -0.179357765653E+04    0.45812E-04   -0.23188E-04  1005   0.140E-02
   61 T=  3993. E= -.16560309E+04 F= -.17935777E+04 E0= -.17935777E+04  EK= 0.12490E+03 SP= 0.12E+02 SK= 0.15E+00
       N       E                     dE             d eps       ncg     rms          rms(c)
DAV:   1    -0.179352045913E+04    0.57243E-01   -0.84833E-02  2872   0.319E+00    0.134E-01
RMM:   2    -0.179353013668E+04   -0.96775E-02   -0.99982E-02  1568   0.320E-01    0.804E-02
RMM:   3    -0.179353045286E+04   -0.31619E-03   -0.52316E-03  1789   0.531E-02    0.574E-02
RMM:   4    -0.179353040797E+04    0.44900E-04   -0.24349E-04  1022   0.142E-02
   62 T=  4023. E= -.16560382E+04 F= -.17935304E+04 E0= -.17935304E+04  EK= 0.12583E+03 SP= 0.12E+02 SK= 0.15E+00
       N       E                     dE             d eps       ncg     rms          rms(c)
DAV:   1    -0.179343700816E+04    0.93445E-01   -0.10382E-01  2832   0.321E+00    0.998E-02
RMM:   2    -0.179344729330E+04   -0.10285E-01   -0.10377E-01  1568   0.326E-01    0.878E-02
RMM:   3    -0.179344761079E+04   -0.31749E-03   -0.54075E-03  1790   0.541E-02    0.709E-02
RMM:   4    -0.179344755492E+04    0.55871E-04   -0.21902E-04  1006   0.133E-02
   63 T=  4051. E= -.16560460E+04 F= -.17934476E+04 E0= -.17934476E+04  EK= 0.12671E+03 SP= 0.11E+02 SK= 0.14E+00
       N       E                     dE             d eps       ncg     rms          rms(c)
DAV:   1    -0.179330483714E+04    0.14277E+00   -0.13103E-01  2784   0.322E+00    0.108E-01
RMM:   2    -0.179331570760E+04   -0.10870E-01   -0.10996E-01  1568   0.336E-01    0.891E-02
RMM:   3    -0.179331603108E+04   -0.32349E-03   -0.54927E-03  1793   0.556E-02    0.718E-02
RMM:   4    -0.179331598200E+04    0.49087E-04   -0.26299E-04  1051   0.145E-02
   64 T=  4076. E= -.16560534E+04 F= -.17933160E+04 E0= -.17933160E+04  EK= 0.12751E+03 SP= 0.96E+01 SK= 0.13E+00
       N       E                     dE             d eps       ncg     rms          rms(c)
DAV:   1    -0.179310792356E+04    0.20811E+00   -0.12793E-01  2824   0.323E+00    0.133E-01
RMM:   2    -0.179311940811E+04   -0.11485E-01   -0.11787E-01  1568   0.344E-01    0.851E-02
RMM:   3    -0.179311977271E+04   -0.36460E-03   -0.60111E-03  1806   0.577E-02    0.637E-02
RMM:   4    -0.179311972638E+04    0.46336E-04   -0.25941E-04  1042   0.143E-02
   65 T=  4098. E= -.16560603E+04 F= -.17931197E+04 E0= -.17931197E+04  EK= 0.12819E+03 SP= 0.88E+01 SK= 0.11E+00
       N       E                     dE             d eps       ncg     rms          rms(c)
DAV:   1    -0.179282644895E+04    0.29332E+00   -0.11818E-01  2832   0.325E+00    0.110E-01
RMM:   2    -0.179283817144E+04   -0.11722E-01   -0.11852E-01  1568   0.341E-01    0.883E-02
RMM:   3    -0.179283855640E+04   -0.38496E-03   -0.62551E-03  1806   0.582E-02    0.707E-02
RMM:   4    -0.179283850205E+04    0.54346E-04   -0.25249E-04  1052   0.138E-02
   66 T=  4115. E= -.16560663E+04 F= -.17928385E+04 E0= -.17928385E+04  EK= 0.12872E+03 SP= 0.80E+01 SK= 0.90E-01
       N       E                     dE             d eps       ncg     rms          rms(c)
DAV:   1    -0.179244103926E+04    0.39752E+00   -0.13741E-01  2816   0.325E+00    0.116E-01
RMM:   2    -0.179245276701E+04   -0.11728E-01   -0.11864E-01  1568   0.346E-01    0.896E-02
RMM:   3    -0.179245311261E+04   -0.34561E-03   -0.59379E-03  1804   0.578E-02    0.716E-02
RMM:   4    -0.179245306021E+04    0.52405E-04   -0.26060E-04  1051   0.143E-02
   67 T=  4125. E= -.16560710E+04 F= -.17924531E+04 E0= -.17924531E+04  EK= 0.12905E+03 SP= 0.73E+01 SK= 0.69E-01
       N       E                     dE             d eps       ncg     rms          rms(c)
DAV:   1    -0.179193556585E+04    0.51755E+00   -0.11095E-01  2856   0.325E+00    0.131E-01
RMM:   2    -0.179194708210E+04   -0.11516E-01   -0.11791E-01  1568   0.343E-01    0.849E-02
RMM:   3    -0.179194745908E+04   -0.37697E-03   -0.60842E-03  1812   0.577E-02    0.641E-02
RMM:   4    -0.179194741123E+04    0.47846E-04   -0.26203E-04  1052   0.143E-02
   68 T=  4129. E= -.16560738E+04 F= -.17919474E+04 E0= -.17919474E+04  EK= 0.12916E+03 SP= 0.67E+01 SK= 0.50E-01
       N       E                     dE             d eps       ncg     rms          rms(c)
DAV:   1    -0.179130150184E+04    0.64596E+00   -0.10972E-01  2864   0.326E+00    0.115E-01
RMM:   2    -0.179131263257E+04   -0.11131E-01   -0.11293E-01  1568   0.341E-01    0.889E-02
RMM:   3    -0.179131297459E+04   -0.34202E-03   -0.58067E-03  1798   0.567E-02    0.704E-02
RMM:   4    -0.179131291772E+04    0.56865E-04   -0.25111E-04  1041   0.139E-02
   69 T=  4125. E= -.16560747E+04 F= -.17913129E+04 E0= -.17913129E+04  EK= 0.12905E+03 SP= 0.62E+01 SK= 0.34E-01
       N       E                     dE             d eps       ncg     rms          rms(c)
DAV:   1    -0.179053883616E+04    0.77414E+00   -0.10411E-01  2832   0.325E+00    0.106E-01
RMM:   2    -0.179054969542E+04   -0.10859E-01   -0.10971E-01  1568   0.336E-01    0.895E-02
RMM:   3    -0.179055004275E+04   -0.34733E-03   -0.56940E-03  1797   0.558E-02    0.724E-02
RMM:   4    -0.179054998701E+04    0.55731E-04   -0.24971E-04  1037   0.141E-02
   70 T=  4114. E= -.16560739E+04 F= -.17905500E+04 E0= -.17905500E+04  EK= 0.12871E+03 SP= 0.57E+01 SK= 0.21E-01
       N       E                     dE             d eps       ncg     rms          rms(c)
DAV:   1    -0.178965643577E+04    0.89361E+00   -0.10617E-01  2848   0.324E+00    0.137E-01
RMM:   2    -0.178966753915E+04   -0.11103E-01   -0.11387E-01  1568   0.341E-01    0.844E-02
RMM:   3    -0.178966788708E+04   -0.34793E-03   -0.57138E-03  1802   0.567E-02    0.622E-02
RMM:   4    -0.178966784256E+04    0.44513E-04   -0.26914E-04  1057   0.146E-02
   71 T=  4097. E= -.16560709E+04 F= -.17896678E+04 E0= -.17896678E+04  EK= 0.12815E+03 SP= 0.54E+01 SK= 0.13E-01
       N       E                     dE             d eps       ncg     rms          rms(c)
DAV:   1    -0.178867468636E+04    0.99320E+00   -0.11181E-01  2816   0.324E+00    0.125E-01
RMM:   2    -0.178868622146E+04   -0.11535E-01   -0.11739E-01  1568   0.347E-01    0.905E-02
RMM:   3    -0.178868655307E+04   -0.33162E-03   -0.58424E-03  1803   0.576E-02    0.699E-02
RMM:   4    -0.178868649524E+04    0.57838E-04   -0.26391E-04  1061   0.143E-02
   72 T=  4074. E= -.16560664E+04 F= -.17886865E+04 E0= -.17886865E+04  EK= 0.12743E+03 SP= 0.52E+01 SK= 0.76E-02
       N       E                     dE             d eps       ncg     rms          rms(c)
DAV:   1    -0.178762360144E+04    0.10630E+01   -0.99754E-02  2864   0.322E+00    0.102E-01
RMM:   2    -0.178763462920E+04   -0.11028E-01   -0.11115E-01  1568   0.336E-01    0.924E-02
RMM:   3    -0.178763498304E+04   -0.35384E-03   -0.58232E-03  1796   0.562E-02    0.757E-02
RMM:   4    -0.178763492555E+04    0.57490E-04   -0.25333E-04  1051   0.140E-02
   73 T=  4046. E= -.16560616E+04 F= -.17876349E+04 E0= -.17876349E+04  EK= 0.12657E+03 SP= 0.50E+01 SK= 0.47E-02
       N       E                     dE             d eps       ncg     rms          rms(c)
DAV:   1    -0.178653516214E+04    0.10998E+01   -0.93306E-02  2848   0.320E+00    0.128E-01
RMM:   2    -0.178654574374E+04   -0.10582E-01   -0.10826E-01  1568   0.333E-01    0.856E-02
RMM:   3    -0.178654606888E+04   -0.32515E-03   -0.54464E-03  1805   0.551E-02    0.643E-02
RMM:   4    -0.178654602237E+04    0.46516E-04   -0.25845E-04  1039   0.144E-02
   74 T=  4017. E= -.16560556E+04 F= -.17865460E+04 E0= -.17865460E+04  EK= 0.12564E+03 SP= 0.48E+01 SK= 0.34E-02
       N       E                     dE             d eps       ncg     rms          rms(c)
DAV:   1    -0.178544580741E+04    0.11003E+01   -0.99306E-02  2848   0.319E+00    0.128E-01
RMM:   2    -0.178545661216E+04   -0.10805E-01   -0.11042E-01  1568   0.337E-01    0.853E-02
RMM:   3    -0.178545691817E+04   -0.30602E-03   -0.54179E-03  1796   0.554E-02    0.649E-02
RMM:   4    -0.178545686717E+04    0.51007E-04   -0.24553E-04  1046   0.138E-02
   75 T=  3986. E= -.16560494E+04 F= -.17854569E+04 E0= -.17854569E+04  EK= 0.12470E+03 SP= 0.47E+01 SK= 0.34E-02
       N       E                     dE             d eps       ncg     rms          rms(c)
DAV:   1    -0.178439364895E+04    0.10633E+01   -0.10479E-01  2808   0.318E+00    0.103E-01
RMM:   2    -0.178440461504E+04   -0.10966E-01   -0.11051E-01  1568   0.335E-01    0.917E-02
RMM:   3    -0.178440493207E+04   -0.31702E-03   -0.55582E-03  1787   0.558E-02    0.756E-02
RMM:   4    -0.178440487561E+04    0.56451E-04   -0.24792E-04  1048   0.137E-02
   76 T=  3958. E= -.16560437E+04 F= -.17844049E+04 E0= -.17844049E+04  EK= 0.12380E+03 SP= 0.46E+01 SK= 0.45E-02
       N       E                     dE             d eps       ncg     rms          rms(c)
DAV:   1    -0.178341642101E+04    0.98851E+00   -0.10126E-01  2816   0.315E+00    0.119E-01
RMM:   2    -0.178342722534E+04   -0.10804E-01   -0.10991E-01  1568   0.333E-01    0.894E-02
RMM:   3    -0.178342756188E+04   -0.33653E-03   -0.56124E-03  1787   0.557E-02    0.704E-02
RMM:   4    -0.178342751302E+04    0.48855E-04   -0.26831E-04  1051   0.146E-02
   77 T=  3932. E= -.16560388E+04 F= -.17834275E+04 E0= -.17834275E+04  EK= 0.12301E+03 SP= 0.44E+01 SK= 0.71E-02
       N       E                     dE             d eps       ncg     rms          rms(c)
DAV:   1    -0.178254721344E+04    0.88035E+00   -0.11157E-01  2840   0.314E+00    0.139E-01
RMM:   2    -0.178255814940E+04   -0.10936E-01   -0.11234E-01  1568   0.338E-01    0.821E-02
RMM:   3    -0.178255846110E+04   -0.31170E-03   -0.54798E-03  1788   0.562E-02    0.613E-02
RMM:   4    -0.178255841797E+04    0.43127E-04   -0.25322E-04  1050   0.140E-02
   78 T=  3912. E= -.16560348E+04 F= -.17825584E+04 E0= -.17825584E+04  EK= 0.12237E+03 SP= 0.41E+01 SK= 0.12E-01
       N       E                     dE             d eps       ncg     rms          rms(c)
DAV:   1    -0.178181393743E+04    0.74452E+00   -0.94376E-02  2816   0.314E+00    0.100E-01
RMM:   2    -0.178182476833E+04   -0.10831E-01   -0.10914E-01  1568   0.328E-01    0.881E-02
RMM:   3    -0.178182511701E+04   -0.34867E-03   -0.57181E-03  1782   0.560E-02    0.725E-02
RMM:   4    -0.178182506349E+04    0.53517E-04   -0.24676E-04  1042   0.136E-02
   79 T=  3898. E= -.16560328E+04 F= -.17818251E+04 E0= -.17818251E+04  EK= 0.12194E+03 SP= 0.38E+01 SK= 0.19E-01
       N       E                     dE             d eps       ncg     rms          rms(c)
DAV:   1    -0.178123612604E+04    0.58899E+00   -0.96514E-02  2856   0.312E+00    0.108E-01
RMM:   2    -0.178124622816E+04   -0.10102E-01   -0.10227E-01  1568   0.321E-01    0.829E-02
RMM:   3    -0.178124656986E+04   -0.34169E-03   -0.53939E-03  1775   0.545E-02    0.660E-02
RMM:   4    -0.178124652853E+04    0.41329E-04   -0.25746E-04  1044   0.141E-02
   80 T=  3892. E= -.16560327E+04 F= -.17812465E+04 E0= -.17812465E+04  EK= 0.12173E+03 SP= 0.35E+01 SK= 0.29E-01
       N       E                     dE             d eps       ncg     rms          rms(c)
DAV:   1    -0.178082352869E+04    0.42304E+00   -0.88236E-02  2880   0.312E+00    0.137E-01
RMM:   2    -0.178083311939E+04   -0.95907E-02   -0.99017E-02  1568   0.319E-01    0.757E-02
RMM:   3    -0.178083342796E+04   -0.30857E-03   -0.50870E-03  1770   0.533E-02    0.549E-02
RMM:   4    -0.178083339205E+04    0.35903E-04   -0.24070E-04  1033   0.137E-02
   81 T=  3893. E= -.16560343E+04 F= -.17808334E+04 E0= -.17808334E+04  EK= 0.12177E+03 SP= 0.30E+01 SK= 0.42E-01
       N       E                     dE             d eps       ncg     rms          rms(c)
DAV:   1    -0.178057701877E+04    0.25641E+00   -0.90463E-02  2880   0.313E+00    0.101E-01
RMM:   2    -0.178058680312E+04   -0.97843E-02   -0.98879E-02  1568   0.318E-01    0.859E-02
RMM:   3    -0.178058709257E+04   -0.28945E-03   -0.50024E-03  1774   0.530E-02    0.697E-02
RMM:   4    -0.178058704073E+04    0.51838E-04   -0.23064E-04  1022   0.134E-02
   82 T=  3902. E= -.16560382E+04 F= -.17805870E+04 E0= -.17805870E+04  EK= 0.12205E+03 SP= 0.24E+01 SK= 0.56E-01
       N       E                     dE             d eps       ncg     rms          rms(c)
DAV:   1    -0.178048941903E+04    0.97674E-01   -0.10829E-01  2848   0.313E+00    0.109E-01
RMM:   2    -0.178049979391E+04   -0.10375E-01   -0.10501E-01  1568   0.326E-01    0.881E-02
RMM:   3    -0.178050011284E+04   -0.31893E-03   -0.52766E-03  1789   0.548E-02    0.703E-02
RMM:   4    -0.178050006647E+04    0.46367E-04   -0.26101E-04  1047   0.144E-02
   83 T=  3918. E= -.16560440E+04 F= -.17805001E+04 E0= -.17805001E+04  EK= 0.12257E+03 SP= 0.18E+01 SK= 0.70E-01
       N       E                     dE             d eps       ncg     rms          rms(c)
DAV:   1    -0.178054656320E+04   -0.46450E-01   -0.99677E-02  2896   0.315E+00    0.134E-01
RMM:   2    -0.178055697190E+04   -0.10409E-01   -0.10718E-01  1568   0.327E-01    0.837E-02
RMM:   3    -0.178055730313E+04   -0.33123E-03   -0.54556E-03  1787   0.551E-02    0.613E-02
RMM:   4    -0.178055725999E+04    0.43141E-04   -0.27346E-04  1052   0.146E-02
   84 T=  3941. E= -.16560513E+04 F= -.17805573E+04 E0= -.17805573E+04  EK= 0.12329E+03 SP= 0.11E+01 SK= 0.81E-01
       N       E                     dE             d eps       ncg     rms          rms(c)
DAV:   1    -0.178072714903E+04   -0.16985E+00   -0.99145E-02  2840   0.317E+00    0.110E-01
RMM:   2    -0.178073732599E+04   -0.10177E-01   -0.10313E-01  1568   0.324E-01    0.879E-02
RMM:   3    -0.178073762285E+04   -0.29686E-03   -0.51826E-03  1775   0.540E-02    0.691E-02
RMM:   4    -0.178073757280E+04    0.50043E-04   -0.24620E-04  1033   0.138E-02
   85 T=  3970. E= -.16560597E+04 F= -.17807376E+04 E0= -.17807376E+04  EK= 0.12419E+03 SP= 0.40E+00 SK= 0.90E-01
       N       E                     dE             d eps       ncg     rms          rms(c)
DAV:   1    -0.178100824045E+04   -0.27062E+00   -0.10606E-01  2848   0.318E+00    0.107E-01
RMM:   2    -0.178101855145E+04   -0.10311E-01   -0.10431E-01  1568   0.326E-01    0.946E-02
RMM:   3    -0.178101883736E+04   -0.28591E-03   -0.50835E-03  1789   0.538E-02    0.758E-02
RMM:   4    -0.178101878388E+04    0.53483E-04   -0.26589E-04  1048   0.146E-02
   86 T=  4003. E= -.16560690E+04 F= -.17810188E+04 E0= -.17810188E+04  EK= 0.12521E+03 SP= -.36E+00 SK= 0.92E-01
       N       E                     dE             d eps       ncg     rms          rms(c)
DAV:   1    -0.178136813768E+04   -0.34930E+00   -0.91302E-02  2872   0.320E+00    0.125E-01
RMM:   2    -0.178137810421E+04   -0.99665E-02   -0.10230E-01  1568   0.323E-01    0.895E-02
RMM:   3    -0.178137842150E+04   -0.31730E-03   -0.52611E-03  1783   0.540E-02    0.670E-02
RMM:   4    -0.178137837348E+04    0.48020E-04   -0.28380E-04  1049   0.151E-02
   87 T=  4038. E= -.16560786E+04 F= -.17813784E+04 E0= -.17813784E+04  EK= 0.12632E+03 SP= -.11E+01 SK= 0.88E-01
       N       E                     dE             d eps       ncg     rms          rms(c)
DAV:   1    -0.178178479684E+04   -0.40638E+00   -0.86682E-02  2856   0.322E+00    0.124E-01
RMM:   2    -0.178179494613E+04   -0.10149E-01   -0.10367E-01  1568   0.323E-01    0.855E-02
RMM:   3    -0.178179526433E+04   -0.31820E-03   -0.53423E-03  1790   0.541E-02    0.640E-02
RMM:   4    -0.178179521666E+04    0.47676E-04   -0.25029E-04  1038   0.139E-02
   88 T=  4075. E= -.16560881E+04 F= -.17817952E+04 E0= -.17817952E+04  EK= 0.12746E+03 SP= -.18E+01 SK= 0.78E-01
       N       E                     dE             d eps       ncg     rms          rms(c)
DAV:   1    -0.178224083941E+04   -0.44558E+00   -0.95719E-02  2864   0.325E+00    0.103E-01
RMM:   2    -0.178225094894E+04   -0.10110E-01   -0.10203E-01  1568   0.324E-01    0.963E-02
RMM:   3    -0.178225122652E+04   -0.27758E-03   -0.50639E-03  1772   0.532E-02    0.776E-02
RMM:   4    -0.178225116614E+04    0.60376E-04   -0.26040E-04  1043   0.144E-02
   89 T=  4111. E= -.16560976E+04 F= -.17822512E+04 E0= -.17822512E+04  EK= 0.12859E+03 SP= -.25E+01 SK= 0.63E-01
       N       E                     dE             d eps       ncg     rms          rms(c)
DAV:   1    -0.178272048964E+04   -0.46926E+00   -0.86829E-02  2848   0.326E+00    0.115E-01
RMM:   2    -0.178273015945E+04   -0.96698E-02   -0.98603E-02  1568   0.320E-01    0.917E-02
RMM:   3    -0.178273044626E+04   -0.28681E-03   -0.49068E-03  1774   0.523E-02    0.705E-02
RMM:   4    -0.178273040086E+04    0.45398E-04   -0.26717E-04  1039   0.147E-02
   90 T=  4145. E= -.16561065E+04 F= -.17827304E+04 E0= -.17827304E+04  EK= 0.12966E+03 SP= -.31E+01 SK= 0.45E-01
       N       E                     dE             d eps       ncg     rms          rms(c)
DAV:   1    -0.178321012489E+04   -0.47968E+00   -0.82282E-02  2864   0.328E+00    0.130E-01
RMM:   2    -0.178321998013E+04   -0.98552E-02   -0.10141E-01  1568   0.324E-01    0.853E-02
RMM:   3    -0.178322027504E+04   -0.29491E-03   -0.50665E-03  1769   0.531E-02    0.623E-02
RMM:   4    -0.178322022921E+04    0.45837E-04   -0.26383E-04  1042   0.144E-02
   91 T=  4176. E= -.16561144E+04 F= -.17832202E+04 E0= -.17832202E+04  EK= 0.13063E+03 SP= -.35E+01 SK= 0.26E-01
       N       E                     dE             d eps       ncg     rms          rms(c)
DAV:   1    -0.178369963646E+04   -0.47936E+00   -0.10444E-01  2816   0.331E+00    0.108E-01
RMM:   2    -0.178371033824E+04   -0.10702E-01   -0.10815E-01  1568   0.332E-01    0.922E-02
RMM:   3    -0.178371063877E+04   -0.30052E-03   -0.53503E-03  1768   0.549E-02    0.736E-02
RMM:   4    -0.178371058145E+04    0.57319E-04   -0.27306E-04  1050   0.145E-02
   92 T=  4202. E= -.16561218E+04 F= -.17837106E+04 E0= -.17837106E+04  EK= 0.13146E+03 SP= -.39E+01 SK= 0.10E-01
       N       E                     dE             d eps       ncg     rms          rms(c)
DAV:   1    -0.178418107577E+04   -0.47044E+00   -0.94710E-02  2816   0.332E+00    0.108E-01
RMM:   2    -0.178419153202E+04   -0.10456E-01   -0.10596E-01  1568   0.328E-01    0.885E-02
RMM:   3    -0.178419185809E+04   -0.32606E-03   -0.53705E-03  1775   0.545E-02    0.700E-02
RMM:   4    -0.178419181128E+04    0.46806E-04   -0.27271E-04  1051   0.145E-02
   93 T=  4224. E= -.16561286E+04 F= -.17841918E+04 E0= -.17841918E+04  EK= 0.13212E+03 SP= -.41E+01 SK= 0.13E-02
       N       E                     dE             d eps       ncg     rms          rms(c)
DAV:   1    -0.178464282249E+04   -0.45096E+00   -0.87331E-02  2824   0.334E+00    0.131E-01
RMM:   2    -0.178465321205E+04   -0.10390E-01   -0.10675E-01  1568   0.331E-01    0.845E-02
RMM:   3    -0.178465354583E+04   -0.33377E-03   -0.54916E-03  1778   0.550E-02    0.624E-02
RMM:   4    -0.178465350051E+04    0.45318E-04   -0.27336E-04  1049   0.146E-02
   94 T=  4238. E= -.16561339E+04 F= -.17846535E+04 E0= -.17846535E+04  EK= 0.13258E+03 SP= -.41E+01 SK= 0.13E-02
       N       E                     dE             d eps       ncg     rms          rms(c)
DAV:   1    -0.178507511844E+04   -0.42157E+00   -0.94376E-02  2856   0.335E+00    0.111E-01
RMM:   2    -0.178508564697E+04   -0.10529E-01   -0.10667E-01  1568   0.333E-01    0.866E-02
RMM:   3    -0.178508596270E+04   -0.31573E-03   -0.53563E-03  1779   0.546E-02    0.683E-02
RMM:   4    -0.178508591119E+04    0.51513E-04   -0.24580E-04  1025   0.138E-02
   95 T=  4246. E= -.16561382E+04 F= -.17850859E+04 E0= -.17850859E+04  EK= 0.13281E+03 SP= -.39E+01 SK= 0.12E-01
       N       E                     dE             d eps       ncg     rms          rms(c)
DAV:   1    -0.178546780080E+04   -0.38184E+00   -0.10032E-01  2848   0.335E+00    0.108E-01
RMM:   2    -0.178547849582E+04   -0.10695E-01   -0.10816E-01  1568   0.334E-01    0.852E-02
RMM:   3    -0.178547883093E+04   -0.33511E-03   -0.54707E-03  1777   0.551E-02    0.675E-02
RMM:   4    -0.178547878563E+04    0.45300E-04   -0.25173E-04  1029   0.140E-02
   96 T=  4246. E= -.16561412E+04 F= -.17854788E+04 E0= -.17854788E+04  EK= 0.13281E+03 SP= -.35E+01 SK= 0.35E-01
       N       E                     dE             d eps       ncg     rms          rms(c)
DAV:   1    -0.178581042768E+04   -0.33160E+00   -0.11241E-01  2824   0.335E+00    0.133E-01
RMM:   2    -0.178582159878E+04   -0.11171E-01   -0.11429E-01  1568   0.344E-01    0.842E-02
RMM:   3    -0.178582192354E+04   -0.32476E-03   -0.55983E-03  1784   0.564E-02    0.630E-02
RMM:   4    -0.178582188122E+04    0.42312E-04   -0.26417E-04  1050   0.143E-02
   97 T=  4238. E= -.16561422E+04 F= -.17858219E+04 E0= -.17858219E+04  EK= 0.13256E+03 SP= -.29E+01 SK= 0.69E-01
       N       E                     dE             d eps       ncg     rms          rms(c)
DAV:   1    -0.178609530387E+04   -0.27338E+00   -0.10601E-01  2832   0.335E+00    0.114E-01
RMM:   2    -0.178610636113E+04   -0.11057E-01   -0.11200E-01  1568   0.342E-01    0.893E-02
RMM:   3    -0.178610667647E+04   -0.31534E-03   -0.55022E-03  1789   0.560E-02    0.705E-02
RMM:   4    -0.178610662415E+04    0.52327E-04   -0.24512E-04  1030   0.138E-02
   98 T=  4222. E= -.16561417E+04 F= -.17861066E+04 E0= -.17861066E+04  EK= 0.13206E+03 SP= -.22E+01 SK= 0.11E+00
       N       E                     dE             d eps       ncg     rms          rms(c)
DAV:   1    -0.178631590445E+04   -0.20923E+00   -0.92214E-02  2808   0.335E+00    0.108E-01
RMM:   2    -0.178632650000E+04   -0.10596E-01   -0.10720E-01  1568   0.331E-01    0.858E-02
RMM:   3    -0.178632685577E+04   -0.35576E-03   -0.56145E-03  1776   0.551E-02    0.677E-02
RMM:   4    -0.178632680908E+04    0.46685E-04   -0.24460E-04  1033   0.139E-02
   99 T=  4198. E= -.16561401E+04 F= -.17863268E+04 E0= -.17863268E+04  EK= 0.13132E+03 SP= -.13E+01 SK= 0.16E+00
       N       E                     dE             d eps       ncg     rms          rms(c)
DAV:   1    -0.178646752246E+04   -0.14067E+00   -0.89225E-02  2832   0.333E+00    0.127E-01
RMM:   2    -0.178647801298E+04   -0.10491E-01   -0.10729E-01  1568   0.329E-01    0.819E-02
RMM:   3    -0.178647836028E+04   -0.34730E-03   -0.55544E-03  1769   0.547E-02    0.601E-02
RMM:   4    -0.178647831884E+04    0.41447E-04   -0.25192E-04  1036   0.142E-02
  100 T=  4167. E= -.16561369E+04 F= -.17864783E+04 E0= -.17864783E+04  EK= 0.13036E+03 SP= -.23E+00 SK= 0.21E+00
       N       E                     dE             d eps       ncg     rms          rms(c)
DAV:   1    -0.178654912431E+04   -0.70764E-01   -0.99111E-02  2864   0.332E+00    0.118E-01
RMM:   2    -0.178655944879E+04   -0.10324E-01   -0.10498E-01  1568   0.329E-01    0.823E-02
RMM:   3    -0.178655975460E+04   -0.30581E-03   -0.52267E-03  1777   0.540E-02    0.628E-02
RMM:   4    -0.178655971004E+04    0.44562E-04   -0.22379E-04  1018   0.133E-02
  101 T=  4130. E= -.16561322E+04 F= -.17865597E+04 E0= -.17865597E+04  EK= 0.12921E+03 SP= 0.97E+00 SK= 0.25E+00
       N       E                     dE             d eps       ncg     rms          rms(c)
DAV:   1    -0.178656309429E+04   -0.33397E-02   -0.89119E-02  2832   0.330E+00    0.963E-02
RMM:   2    -0.178657283607E+04   -0.97418E-02   -0.98231E-02  1568   0.319E-01    0.884E-02
RMM:   3    -0.178657313042E+04   -0.29435E-03   -0.49878E-03  1769   0.521E-02    0.718E-02
RMM:   4    -0.178657307903E+04    0.51388E-04   -0.21763E-04  1002   0.133E-02
  102 T=  4089. E= -.16561267E+04 F= -.17865731E+04 E0= -.17865731E+04  EK= 0.12789E+03 SP= 0.23E+01 SK= 0.29E+00
       N       E                     dE             d eps       ncg     rms          rms(c)
DAV:   1    -0.178651191120E+04    0.61219E-01   -0.83717E-02  2840   0.327E+00    0.117E-01
RMM:   2    -0.178652146071E+04   -0.95495E-02   -0.97410E-02  1568   0.315E-01    0.796E-02
RMM:   3    -0.178652177098E+04   -0.31027E-03   -0.49809E-03  1766   0.519E-02    0.595E-02
RMM:   4    -0.178652173389E+04    0.37082E-04   -0.21487E-04   999   0.134E-02
  103 T=  4043. E= -.16561203E+04 F= -.17865217E+04 E0= -.17865217E+04  EK= 0.12646E+03 SP= 0.36E+01 SK= 0.31E+00
       N       E                     dE             d eps       ncg     rms          rms(c)
DAV:   1    -0.178640096577E+04    0.12081E+00   -0.93144E-02  2840   0.325E+00    0.124E-01
RMM:   2    -0.178641105850E+04   -0.10093E-01   -0.10320E-01  1568   0.322E-01    0.806E-02
RMM:   3    -0.178641135445E+04   -0.29595E-03   -0.51415E-03  1780   0.533E-02    0.593E-02
RMM:   4    -0.178641131048E+04    0.43969E-04   -0.22129E-04  1016   0.133E-02
  104 T=  3995. E= -.16561130E+04 F= -.17864113E+04 E0= -.17864113E+04  EK= 0.12495E+03 SP= 0.50E+01 SK= 0.32E+00
       N       E                     dE             d eps       ncg     rms          rms(c)
DAV:   1    -0.178624029076E+04    0.17106E+00   -0.10842E-01  2840   0.322E+00    0.973E-02
RMM:   2    -0.178625060073E+04   -0.10310E-01   -0.10379E-01  1568   0.323E-01    0.882E-02
RMM:   3    -0.178625089632E+04   -0.29559E-03   -0.51713E-03  1776   0.536E-02    0.717E-02
RMM:   4    -0.178625084445E+04    0.51869E-04   -0.21779E-04  1010   0.132E-02
  105 T=  3945. E= -.16561051E+04 F= -.17862508E+04 E0= -.17862508E+04  EK= 0.12342E+03 SP= 0.64E+01 SK= 0.31E+00
       N       E                     dE             d eps       ncg     rms          rms(c)
DAV:   1    -0.178604361039E+04    0.20729E+00   -0.87874E-02  2840   0.319E+00    0.115E-01
RMM:   2    -0.178605355990E+04   -0.99495E-02   -0.10118E-01  1568   0.316E-01    0.836E-02
RMM:   3    -0.178605387476E+04   -0.31485E-03   -0.51179E-03  1776   0.531E-02    0.636E-02
RMM:   4    -0.178605383594E+04    0.38822E-04   -0.23530E-04  1024   0.138E-02
  106 T=  3897. E= -.16560974E+04 F= -.17860538E+04 E0= -.17860538E+04  EK= 0.12190E+03 SP= 0.78E+01 SK= 0.28E+00
       N       E                     dE             d eps       ncg     rms          rms(c)
DAV:   1    -0.178582456140E+04    0.22931E+00   -0.97679E-02  2848   0.316E+00    0.135E-01
RMM:   2    -0.178583468807E+04   -0.10127E-01   -0.10411E-01  1568   0.322E-01    0.776E-02
RMM:   3    -0.178583498126E+04   -0.29319E-03   -0.50906E-03  1778   0.536E-02    0.560E-02
RMM:   4    -0.178583494274E+04    0.38516E-04   -0.21901E-04  1012   0.132E-02
  107 T=  3851. E= -.16560893E+04 F= -.17858349E+04 E0= -.17858349E+04  EK= 0.12046E+03 SP= 0.90E+01 SK= 0.24E+00
       N       E                     dE             d eps       ncg     rms          rms(c)
DAV:   1    -0.178560196625E+04    0.23302E+00   -0.89549E-02  2848   0.314E+00    0.913E-02
RMM:   2    -0.178561184102E+04   -0.98748E-02   -0.99340E-02  1568   0.314E-01    0.888E-02
RMM:   3    -0.178561213162E+04   -0.29060E-03   -0.50525E-03  1772   0.527E-02    0.733E-02
RMM:   4    -0.178561207677E+04    0.54849E-04   -0.21256E-04  1010   0.130E-02
  108 T=  3809. E= -.16560824E+04 F= -.17856121E+04 E0= -.17856121E+04  EK= 0.11914E+03 SP= 0.10E+02 SK= 0.19E+00
       N       E                     dE             d eps       ncg     rms          rms(c)
DAV:   1    -0.178539502550E+04    0.21711E+00   -0.78939E-02  2880   0.310E+00    0.106E-01
RMM:   2    -0.178540430263E+04   -0.92771E-02   -0.94051E-02  1568   0.305E-01    0.825E-02
RMM:   3    -0.178540461161E+04   -0.30898E-03   -0.49017E-03  1764   0.517E-02    0.639E-02
RMM:   4    -0.178540457412E+04    0.37497E-04   -0.22939E-04  1016   0.137E-02
  109 T=  3772. E= -.16560767E+04 F= -.17854046E+04 E0= -.17854046E+04  EK= 0.11798E+03 SP= 0.11E+02 SK= 0.14E+00
       N       E                     dE             d eps       ncg     rms          rms(c)
DAV:   1    -0.178522160216E+04    0.18301E+00   -0.73830E-02  2888   0.308E+00    0.140E-01
RMM:   2    -0.178523111449E+04   -0.95123E-02   -0.98527E-02  1568   0.310E-01    0.712E-02
RMM:   3    -0.178523141357E+04   -0.29907E-03   -0.49189E-03  1771   0.522E-02    0.487E-02
RMM:   4    -0.178523138030E+04    0.33270E-04   -0.21090E-04  1001   0.130E-02
  110 T=  3741. E= -.16560717E+04 F= -.17852314E+04 E0= -.17852314E+04  EK= 0.11703E+03 SP= 0.12E+02 SK= 0.87E-01
       N       E                     dE             d eps       ncg     rms          rms(c)
DAV:   1    -0.178509976051E+04    0.13165E+00   -0.91156E-02  2800   0.306E+00    0.954E-02
RMM:   2    -0.178510947294E+04   -0.97124E-02   -0.97754E-02  1568   0.313E-01    0.879E-02
RMM:   3    -0.178510972685E+04   -0.25391E-03   -0.47860E-03  1771   0.523E-02    0.718E-02
RMM:   4    -0.178510967126E+04    0.55591E-04   -0.21555E-04  1013   0.130E-02
  111 T=  3718. E= -.16560685E+04 F= -.17851097E+04 E0= -.17851097E+04  EK= 0.11632E+03 SP= 0.13E+02 SK= 0.44E-01
       N       E                     dE             d eps       ncg     rms          rms(c)
DAV:   1    -0.178504537843E+04    0.64348E-01   -0.10615E-01  2816   0.304E+00    0.106E-01
RMM:   2    -0.178505543441E+04   -0.10056E-01   -0.10163E-01  1568   0.319E-01    0.919E-02
RMM:   3    -0.178505571441E+04   -0.28001E-03   -0.49786E-03  1766   0.536E-02    0.735E-02
RMM:   4    -0.178505566942E+04    0.44990E-04   -0.26606E-04  1053   0.146E-02
  112 T=  3704. E= -.16560671E+04 F= -.17850557E+04 E0= -.17850557E+04  EK= 0.11588E+03 SP= 0.13E+02 SK= 0.15E-01
       N       E                     dE             d eps       ncg     rms          rms(c)
DAV:   1    -0.178507432560E+04   -0.18611E-01   -0.87322E-02  2840   0.303E+00    0.139E-01
RMM:   2    -0.178508419670E+04   -0.98711E-02   -0.10218E-01  1568   0.317E-01    0.808E-02
RMM:   3    -0.178508447867E+04   -0.28196E-03   -0.49750E-03  1758   0.532E-02    0.570E-02
RMM:   4    -0.178508444097E+04    0.37700E-04   -0.25614E-04  1052   0.142E-02
  113 T=  3700. E= -.16560670E+04 F= -.17850844E+04 E0= -.17850844E+04  EK= 0.11573E+03 SP= 0.13E+02 SK= 0.83E-03
       N       E                     dE             d eps       ncg     rms          rms(c)
DAV:   1    -0.178520106143E+04   -0.11658E+00   -0.71051E-02  2824   0.303E+00    0.103E-01
RMM:   2    -0.178521049419E+04   -0.94328E-02   -0.95414E-02  1568   0.309E-01    0.871E-02
RMM:   3    -0.178521075404E+04   -0.25984E-03   -0.47247E-03  1755   0.514E-02    0.685E-02
RMM:   4    -0.178521069763E+04    0.56409E-04   -0.22423E-04  1015   0.135E-02
  114 T=  3705. E= -.16560690E+04 F= -.17852107E+04 E0= -.17852107E+04  EK= 0.11590E+03 SP= 0.13E+02 SK= 0.40E-02
       N       E                     dE             d eps       ncg     rms          rms(c)
DAV:   1    -0.178544142482E+04   -0.23067E+00   -0.53704E-02  2840   0.302E+00    0.954E-02
RMM:   2    -0.178544957315E+04   -0.81483E-02   -0.82344E-02  1568   0.293E-01    0.854E-02
RMM:   3    -0.178544983374E+04   -0.26060E-03   -0.43012E-03  1736   0.482E-02    0.670E-02
RMM:   4    -0.178544978701E+04    0.46731E-04   -0.23046E-04  1007   0.140E-02
  115 T=  3721. E= -.16560729E+04 F= -.17854498E+04 E0= -.17854498E+04  EK= 0.11639E+03 SP= 0.13E+02 SK= 0.23E-01
       N       E                     dE             d eps       ncg     rms          rms(c)
DAV:   1    -0.178580893105E+04   -0.35910E+00   -0.57967E-02  2856   0.302E+00    0.141E-01
RMM:   2    -0.178581723920E+04   -0.83082E-02   -0.86705E-02  1568   0.302E-01    0.777E-02
RMM:   3    -0.178581747903E+04   -0.23983E-03   -0.42302E-03  1738   0.489E-02    0.526E-02
RMM:   4    -0.178581744385E+04    0.35181E-04   -0.23125E-04  1007   0.140E-02
  116 T=  3747. E= -.16560784E+04 F= -.17858174E+04 E0= -.17858174E+04  EK= 0.11721E+03 SP= 0.12E+02 SK= 0.55E-01
       N       E                     dE             d eps       ncg     rms          rms(c)
DAV:   1    -0.178632057172E+04   -0.50309E+00   -0.63691E-02  2872   0.304E+00    0.100E-01
RMM:   2    -0.178632930452E+04   -0.87328E-02   -0.88438E-02  1568   0.308E-01    0.939E-02
RMM:   3    -0.178632950918E+04   -0.20466E-03   -0.42534E-03  1734   0.491E-02    0.745E-02
RMM:   4    -0.178632944395E+04    0.65229E-04   -0.23566E-04  1005   0.141E-02
  117 T=  3784. E= -.16560859E+04 F= -.17863294E+04 E0= -.17863294E+04  EK= 0.11835E+03 SP= 0.12E+02 SK= 0.95E-01
       N       E                     dE             d eps       ncg     rms          rms(c)
DAV:   1    -0.178699122522E+04   -0.66172E+00   -0.57423E-02  2864   0.305E+00    0.931E-02
RMM:   2    -0.178699979548E+04   -0.85703E-02   -0.86384E-02  1568   0.301E-01    0.909E-02
RMM:   3    -0.178700006795E+04   -0.27247E-03   -0.44763E-03  1736   0.492E-02    0.728E-02
RMM:   4    -0.178700002204E+04    0.45909E-04   -0.25501E-04  1032   0.147E-02
  118 T=  3831. E= -.16560959E+04 F= -.17870000E+04 E0= -.17870000E+04  EK= 0.11982E+03 SP= 0.11E+02 SK= 0.14E+00
       N       E                     dE             d eps       ncg     rms          rms(c)
DAV:   1    -0.178782827638E+04   -0.82821E+00   -0.62685E-02  2824   0.307E+00    0.151E-01
RMM:   2    -0.178783702831E+04   -0.87519E-02   -0.91707E-02  1568   0.313E-01    0.785E-02
RMM:   3    -0.178783726831E+04   -0.24000E-03   -0.43841E-03  1750   0.498E-02    0.513E-02
RMM:   4    -0.178783723407E+04    0.34237E-04   -0.24018E-04  1018   0.143E-02
  119 T=  3887. E= -.16561078E+04 F= -.17878372E+04 E0= -.17878372E+04  EK= 0.12159E+03 SP= 0.10E+02 SK= 0.17E+00
       N       E                     dE             d eps       ncg     rms          rms(c)
DAV:   1    -0.178883012036E+04   -0.99285E+00   -0.62456E-02  2872   0.311E+00    0.994E-02
RMM:   2    -0.178883917138E+04   -0.90510E-02   -0.91401E-02  1568   0.314E-01    0.906E-02
RMM:   3    -0.178883939286E+04   -0.22148E-03   -0.44045E-03  1740   0.495E-02    0.717E-02
RMM:   4    -0.178883933294E+04    0.59916E-04   -0.22030E-04  1010   0.135E-02
  120 T=  3952. E= -.16561222E+04 F= -.17888393E+04 E0= -.17888393E+04  EK= 0.12363E+03 SP= 0.89E+01 SK= 0.19E+00
       N       E                     dE             d eps       ncg     rms          rms(c)
DAV:   1    -0.178998350363E+04   -0.11441E+01   -0.73334E-02  2800   0.314E+00    0.989E-02
RMM:   2    -0.178999277430E+04   -0.92707E-02   -0.93435E-02  1568   0.317E-01    0.886E-02
RMM:   3    -0.178999304387E+04   -0.26957E-03   -0.45842E-03  1750   0.505E-02    0.703E-02
RMM:   4    -0.178999300150E+04    0.42375E-04   -0.25067E-04  1024   0.145E-02
  121 T=  4024. E= -.16561391E+04 F= -.17899930E+04 E0= -.17899930E+04  EK= 0.12587E+03 SP= 0.78E+01 SK= 0.19E+00
       N       E                     dE             d eps       ncg     rms          rms(c)
DAV:   1    -0.179126061494E+04   -0.12676E+01   -0.84638E-02  2856   0.317E+00    0.148E-01
RMM:   2    -0.179127049013E+04   -0.98752E-02   -0.10277E-01  1568   0.334E-01    0.809E-02
RMM:   3    -0.179127075496E+04   -0.26483E-03   -0.48520E-03  1760   0.527E-02    0.551E-02
RMM:   4    -0.179127071842E+04    0.36539E-04   -0.26045E-04  1040   0.145E-02
  122 T=  4099. E= -.16561571E+04 F= -.17912707E+04 E0= -.17912707E+04  EK= 0.12823E+03 SP= 0.67E+01 SK= 0.18E+00
       N       E                     dE             d eps       ncg     rms          rms(c)
DAV:   1    -0.179262010927E+04   -0.13494E+01   -0.94178E-02  2848   0.323E+00    0.108E-01
RMM:   2    -0.179263113005E+04   -0.11021E-01   -0.11129E-01  1568   0.343E-01    0.921E-02
RMM:   3    -0.179263141012E+04   -0.28007E-03   -0.53377E-03  1766   0.547E-02    0.726E-02
RMM:   4    -0.179263135223E+04    0.57893E-04   -0.25933E-04  1050   0.142E-02
  123 T=  4176. E= -.16561766E+04 F= -.17926314E+04 E0= -.17926314E+04  EK= 0.13062E+03 SP= 0.57E+01 SK= 0.14E+00
       N       E                     dE             d eps       ncg     rms          rms(c)
DAV:   1    -0.179400918293E+04   -0.13778E+01   -0.10314E-01  2808   0.326E+00    0.106E-01
RMM:   2    -0.179402036075E+04   -0.11178E-01   -0.11265E-01  1568   0.346E-01    0.948E-02
RMM:   3    -0.179402065382E+04   -0.29307E-03   -0.53285E-03  1776   0.548E-02    0.757E-02
RMM:   4    -0.179402060362E+04    0.50197E-04   -0.27705E-04  1059   0.149E-02
  124 T=  4249. E= -.16561960E+04 F= -.17940206E+04 E0= -.17940206E+04  EK= 0.13291E+03 SP= 0.48E+01 SK= 0.98E-01
       N       E                     dE             d eps       ncg     rms          rms(c)
DAV:   1    -0.179536677600E+04   -0.13461E+01   -0.10898E-01  2848   0.330E+00    0.153E-01
RMM:   2    -0.179537865002E+04   -0.11874E-01   -0.12278E-01  1568   0.363E-01    0.908E-02
RMM:   3    -0.179537895059E+04   -0.30056E-03   -0.56455E-03  1781   0.572E-02    0.647E-02
RMM:   4    -0.179537890539E+04    0.45201E-04   -0.30631E-04  1073   0.157E-02
  125 T=  4315. E= -.16562143E+04 F= -.17953789E+04 E0= -.17953789E+04  EK= 0.13498E+03 SP= 0.41E+01 SK= 0.51E-01
       N       E                     dE             d eps       ncg     rms          rms(c)
DAV:   1    -0.179663189595E+04   -0.12529E+01   -0.12234E-01  2832   0.335E+00    0.126E-01
RMM:   2    -0.179664450564E+04   -0.12610E-01   -0.12795E-01  1568   0.375E-01    0.102E-01
RMM:   3    -0.179664478669E+04   -0.28105E-03   -0.58206E-03  1788   0.586E-02    0.796E-02
RMM:   4    -0.179664471804E+04    0.68646E-04   -0.30431E-04  1074   0.155E-02
  126 T=  4370. E= -.16562303E+04 F= -.17966447E+04 E0= -.17966447E+04  EK= 0.13670E+03 SP= 0.37E+01 SK= 0.14E-01
       N       E                     dE             d eps       ncg     rms          rms(c)
DAV:   1    -0.179774871876E+04   -0.11039E+01   -0.12385E-01  2840   0.338E+00    0.118E-01
RMM:   2    -0.179776192008E+04   -0.13201E-01   -0.13317E-01  1568   0.377E-01    0.105E-01
RMM:   3    -0.179776225803E+04   -0.33795E-03   -0.62537E-03  1789   0.599E-02    0.844E-02
RMM:   4    -0.179776219327E+04    0.64759E-04   -0.33637E-04  1098   0.164E-02
  127 T=  4411. E= -.16562432E+04 F= -.17977622E+04 E0= -.17977622E+04  EK= 0.13797E+03 SP= 0.35E+01 SK= 0.34E-05
       N       E                     dE             d eps       ncg     rms          rms(c)
DAV:   1    -0.179867318203E+04   -0.91092E+00   -0.12555E-01  2840   0.340E+00    0.159E-01
RMM:   2    -0.179868638042E+04   -0.13198E-01   -0.13611E-01  1568   0.383E-01    0.995E-02
RMM:   3    -0.179868670838E+04   -0.32796E-03   -0.62398E-03  1788   0.603E-02    0.722E-02
RMM:   4    -0.179868665607E+04    0.52312E-04   -0.36460E-04  1110   0.171E-02
  128 T=  4434. E= -.16562521E+04 F= -.17986867E+04 E0= -.17986867E+04  EK= 0.13871E+03 SP= 0.37E+01 SK= 0.18E-01
       N       E                     dE             d eps       ncg     rms          rms(c)
DAV:   1    -0.179937331618E+04   -0.68661E+00   -0.11862E-01  2840   0.342E+00    0.139E-01
RMM:   2    -0.179938648449E+04   -0.13168E-01   -0.13422E-01  1568   0.384E-01    0.102E-01
RMM:   3    -0.179938678930E+04   -0.30481E-03   -0.60832E-03  1791   0.601E-02    0.774E-02
RMM:   4    -0.179938672312E+04    0.66180E-04   -0.33891E-04  1096   0.163E-02
  129 T=  4439. E= -.16562565E+04 F= -.17993867E+04 E0= -.17993867E+04  EK= 0.13885E+03 SP= 0.42E+01 SK= 0.72E-01
       N       E                     dE             d eps       ncg     rms          rms(c)
DAV:   1    -0.179983175313E+04   -0.44496E+00   -0.13043E-01  2792   0.342E+00    0.120E-01
RMM:   2    -0.179984528378E+04   -0.13531E-01   -0.13642E-01  1568   0.386E-01    0.105E-01
RMM:   3    -0.179984560472E+04   -0.32094E-03   -0.61347E-03  1785   0.606E-02    0.847E-02
RMM:   4    -0.179984553676E+04    0.67960E-04   -0.34190E-04  1094   0.165E-02
  130 T=  4424. E= -.16562565E+04 F= -.17998455E+04 E0= -.17998455E+04  EK= 0.13838E+03 SP= 0.50E+01 SK= 0.16E+00
       N       E                     dE             d eps       ncg     rms          rms(c)
DAV:   1    -0.180004628820E+04   -0.20068E+00   -0.12342E-01  2816   0.342E+00    0.143E-01
RMM:   2    -0.180005971446E+04   -0.13426E-01   -0.13722E-01  1568   0.385E-01    0.970E-02
RMM:   3    -0.180006007629E+04   -0.36183E-03   -0.63223E-03  1796   0.607E-02    0.729E-02
RMM:   4    -0.180006002398E+04    0.52303E-04   -0.34939E-04  1096   0.167E-02
  131 T=  4390. E= -.16562521E+04 F= -.18000600E+04 E0= -.18000600E+04  EK= 0.13732E+03 SP= 0.62E+01 SK= 0.28E+00
       N       E                     dE             d eps       ncg     rms          rms(c)
DAV:   1    -0.180002553372E+04    0.34543E-01   -0.13448E-01  2824   0.341E+00    0.146E-01
RMM:   2    -0.180003898296E+04   -0.13449E-01   -0.13752E-01  1568   0.390E-01    0.936E-02
RMM:   3    -0.180003930835E+04   -0.32539E-03   -0.61732E-03  1799   0.608E-02    0.702E-02
RMM:   4    -0.180003925125E+04    0.57093E-04   -0.31880E-04  1088   0.158E-02
  132 T=  4338. E= -.16562439E+04 F= -.18000393E+04 E0= -.18000393E+04  EK= 0.13571E+03 SP= 0.77E+01 SK= 0.41E+00
       N       E                     dE             d eps       ncg     rms          rms(c)
DAV:   1    -0.179978653148E+04    0.25278E+00   -0.13949E-01  2792   0.339E+00    0.116E-01
RMM:   2    -0.179980001048E+04   -0.13479E-01   -0.13579E-01  1568   0.389E-01    0.101E-01
RMM:   3    -0.179980032639E+04   -0.31590E-03   -0.61606E-03  1803   0.610E-02    0.821E-02
RMM:   4    -0.179980025845E+04    0.67936E-04   -0.30933E-04  1087   0.154E-02
  133 T=  4272. E= -.16562333E+04 F= -.17998003E+04 E0= -.17998003E+04  EK= 0.13363E+03 SP= 0.94E+01 SK= 0.54E+00
       N       E                     dE             d eps       ncg     rms          rms(c)
DAV:   1    -0.179935035877E+04    0.44997E+00   -0.12214E-01  2824   0.335E+00    0.124E-01
RMM:   2    -0.179936322806E+04   -0.12869E-01   -0.13057E-01  1568   0.378E-01    0.949E-02
RMM:   3    -0.179936356849E+04   -0.34043E-03   -0.61057E-03  1801   0.598E-02    0.749E-02
RMM:   4    -0.179936351253E+04    0.55965E-04   -0.31218E-04  1080   0.156E-02
  134 T=  4193. E= -.16562202E+04 F= -.17993635E+04 E0= -.17993635E+04  EK= 0.13116E+03 SP= 0.11E+02 SK= 0.65E+00
       N       E                     dE             d eps       ncg     rms          rms(c)
DAV:   1    -0.179874105440E+04    0.62251E+00   -0.11419E-01  2840   0.332E+00    0.146E-01
RMM:   2    -0.179875364573E+04   -0.12591E-01   -0.12934E-01  1568   0.375E-01    0.918E-02
RMM:   3    -0.179875395669E+04   -0.31095E-03   -0.60086E-03  1798   0.592E-02    0.686E-02
RMM:   4    -0.179875389915E+04    0.57533E-04   -0.30852E-04  1076   0.155E-02
  135 T=  4105. E= -.16562052E+04 F= -.17987539E+04 E0= -.17987539E+04  EK= 0.12840E+03 SP= 0.13E+02 SK= 0.73E+00
       N       E                     dE             d eps       ncg     rms          rms(c)
DAV:   1    -0.179798597859E+04    0.76798E+00   -0.13066E-01  2824   0.328E+00    0.122E-01
RMM:   2    -0.179799865285E+04   -0.12674E-01   -0.12814E-01  1568   0.374E-01    0.100E-01
RMM:   3    -0.179799891528E+04   -0.26242E-03   -0.57266E-03  1793   0.586E-02    0.798E-02
RMM:   4    -0.179799884449E+04    0.70787E-04   -0.30788E-04  1078   0.155E-02
  136 T=  4011. E= -.16561886E+04 F= -.17979988E+04 E0= -.17979988E+04  EK= 0.12547E+03 SP= 0.16E+02 SK= 0.76E+00
       N       E                     dE             d eps       ncg     rms          rms(c)
DAV:   1    -0.179711857517E+04    0.88034E+00   -0.12088E-01  2800   0.323E+00    0.120E-01
RMM:   2    -0.179713045649E+04   -0.11881E-01   -0.12057E-01  1568   0.362E-01    0.972E-02
RMM:   3    -0.179713075459E+04   -0.29810E-03   -0.56314E-03  1788   0.575E-02    0.771E-02
RMM:   4    -0.179713069523E+04    0.59365E-04   -0.31401E-04  1080   0.158E-02
  137 T=  3915. E= -.16561711E+04 F= -.17971307E+04 E0= -.17971307E+04  EK= 0.12246E+03 SP= 0.18E+02 SK= 0.74E+00
       N       E                     dE             d eps       ncg     rms          rms(c)
DAV:   1    -0.179617531421E+04    0.95544E+00   -0.12166E-01  2768   0.318E+00    0.142E-01
RMM:   2    -0.179618699646E+04   -0.11682E-01   -0.12020E-01  1568   0.360E-01    0.937E-02
RMM:   3    -0.179618727411E+04   -0.27765E-03   -0.54802E-03  1782   0.569E-02    0.696E-02
RMM:   4    -0.179618721919E+04    0.54923E-04   -0.32075E-04  1083   0.160E-02
  138 T=  3820. E= -.16561533E+04 F= -.17961872E+04 E0= -.17961872E+04  EK= 0.11950E+03 SP= 0.20E+02 SK= 0.67E+00
       N       E                     dE             d eps       ncg     rms          rms(c)
DAV:   1    -0.179519885040E+04    0.98842E+00   -0.11469E-01  2784   0.314E+00    0.119E-01
RMM:   2    -0.179521027498E+04   -0.11425E-01   -0.11602E-01  1568   0.351E-01    0.966E-02
RMM:   3    -0.179521055013E+04   -0.27515E-03   -0.54937E-03  1786   0.562E-02    0.753E-02
RMM:   4    -0.179521048524E+04    0.64888E-04   -0.29544E-04  1066   0.153E-02
  139 T=  3730. E= -.16561361E+04 F= -.17952105E+04 E0= -.17952105E+04  EK= 0.11668E+03 SP= 0.22E+02 SK= 0.56E+00
[...]
RMM:   4    -0.179556588064E+04    0.55846E-04   -0.27164E-04  1042   0.146E-02
  965 T=  3970. E= -.16577050E+04 F= -.17955659E+04 E0= -.17955659E+04  EK= 0.12418E+03 SP= 0.13E+02 SK= 0.19E+00
       N       E                     dE             d eps       ncg     rms          rms(c)
DAV:   1    -0.179569489668E+04   -0.12896E+00   -0.11262E-01  2808   0.323E+00    0.110E-01
RMM:   2    -0.179570638046E+04   -0.11484E-01   -0.11579E-01  1568   0.348E-01    0.966E-02
RMM:   3    -0.179570665489E+04   -0.27444E-03   -0.54147E-03  1786   0.559E-02    0.781E-02
RMM:   4    -0.179570659736E+04    0.57527E-04   -0.27859E-04  1060   0.148E-02
  966 T=  4009. E= -.16577163E+04 F= -.17957066E+04 E0= -.17957066E+04  EK= 0.12540E+03 SP= 0.12E+02 SK= 0.19E+00
       N       E                     dE             d eps       ncg     rms          rms(c)
DAV:   1    -0.179581362035E+04   -0.10697E+00   -0.11169E-01  2800   0.324E+00    0.134E-01
RMM:   2    -0.179582535094E+04   -0.11731E-01   -0.11985E-01  1568   0.351E-01    0.959E-02
RMM:   3    -0.179582565081E+04   -0.29986E-03   -0.56065E-03  1794   0.571E-02    0.733E-02
RMM:   4    -0.179582559758E+04    0.53228E-04   -0.31301E-04  1085   0.158E-02
  967 T=  4047. E= -.16577268E+04 F= -.17958256E+04 E0= -.17958256E+04  EK= 0.12660E+03 SP= 0.11E+02 SK= 0.18E+00
       N       E                     dE             d eps       ncg     rms          rms(c)
DAV:   1    -0.179587950535E+04   -0.53855E-01   -0.11078E-01  2800   0.326E+00    0.132E-01
RMM:   2    -0.179589151049E+04   -0.12005E-01   -0.12255E-01  1568   0.353E-01    0.963E-02
RMM:   3    -0.179589182606E+04   -0.31557E-03   -0.58526E-03  1792   0.578E-02    0.741E-02
RMM:   4    -0.179589176536E+04    0.60701E-04   -0.30704E-04  1086   0.155E-02
  968 T=  4083. E= -.16577368E+04 F= -.17958918E+04 E0= -.17958918E+04  EK= 0.12773E+03 SP= 0.10E+02 SK= 0.17E+00
       N       E                     dE             d eps       ncg     rms          rms(c)
DAV:   1    -0.179586714313E+04    0.24683E-01   -0.11319E-01  2776   0.327E+00    0.116E-01
RMM:   2    -0.179587881973E+04   -0.11677E-01   -0.11817E-01  1568   0.348E-01    0.992E-02
RMM:   3    -0.179587912418E+04   -0.30446E-03   -0.56983E-03  1788   0.569E-02    0.799E-02
RMM:   4    -0.179587905790E+04    0.66282E-04   -0.29681E-04  1069   0.154E-02
  969 T=  4115. E= -.16577452E+04 F= -.17958791E+04 E0= -.17958791E+04  EK= 0.12872E+03 SP= 0.93E+01 SK= 0.14E+00
       N       E                     dE             d eps       ncg     rms          rms(c)
DAV:   1    -0.179576119858E+04    0.11793E+00   -0.11856E-01  2824   0.328E+00    0.133E-01
RMM:   2    -0.179577296525E+04   -0.11767E-01   -0.12020E-01  1568   0.351E-01    0.968E-02
RMM:   3    -0.179577327190E+04   -0.30665E-03   -0.57442E-03  1794   0.574E-02    0.751E-02
RMM:   4    -0.179577321109E+04    0.60812E-04   -0.30954E-04  1074   0.159E-02
  970 T=  4141. E= -.16577518E+04 F= -.17957732E+04 E0= -.17957732E+04  EK= 0.12953E+03 SP= 0.84E+01 SK= 0.12E+00
       N       E                     dE             d eps       ncg     rms          rms(c)
DAV:   1    -0.179555873357E+04    0.21454E+00   -0.12078E-01  2784   0.330E+00    0.135E-01
RMM:   2    -0.179557123775E+04   -0.12504E-01   -0.12775E-01  1568   0.357E-01    0.977E-02
RMM:   3    -0.179557156690E+04   -0.32916E-03   -0.61333E-03  1801   0.593E-02    0.756E-02
RMM:   4    -0.179557150266E+04    0.64246E-04   -0.31244E-04  1085   0.156E-02
  971 T=  4160. E= -.16577567E+04 F= -.17955715E+04 E0= -.17955715E+04  EK= 0.13014E+03 SP= 0.76E+01 SK= 0.86E-01
       N       E                     dE             d eps       ncg     rms          rms(c)
DAV:   1    -0.179526790178E+04    0.30367E+00   -0.10477E-01  2832   0.331E+00    0.112E-01
RMM:   2    -0.179528015454E+04   -0.12253E-01   -0.12377E-01  1568   0.350E-01    0.102E-01
RMM:   3    -0.179528051489E+04   -0.36035E-03   -0.62326E-03  1793   0.588E-02    0.827E-02
RMM:   4    -0.179528044511E+04    0.69776E-04   -0.30597E-04  1074   0.155E-02
  972 T=  4173. E= -.16577599E+04 F= -.17952804E+04 E0= -.17952804E+04  EK= 0.13054E+03 SP= 0.69E+01 SK= 0.58E-01
       N       E                     dE             d eps       ncg     rms          rms(c)
DAV:   1    -0.179490422978E+04    0.37629E+00   -0.11949E-01  2816   0.330E+00    0.135E-01
RMM:   2    -0.179491617310E+04   -0.11943E-01   -0.12199E-01  1568   0.352E-01    0.945E-02
RMM:   3    -0.179491650507E+04   -0.33197E-03   -0.59012E-03  1792   0.581E-02    0.725E-02
RMM:   4    -0.179491645250E+04    0.52566E-04   -0.30670E-04  1081   0.156E-02
  973 T=  4179. E= -.16577610E+04 F= -.17949165E+04 E0= -.17949165E+04  EK= 0.13073E+03 SP= 0.64E+01 SK= 0.35E-01
       N       E                     dE             d eps       ncg     rms          rms(c)
DAV:   1    -0.179449057267E+04    0.42593E+00   -0.12705E-01  2832   0.331E+00    0.139E-01
RMM:   2    -0.179450285222E+04   -0.12280E-01   -0.12570E-01  1568   0.359E-01    0.948E-02
RMM:   3    -0.179450316159E+04   -0.30938E-03   -0.59244E-03  1794   0.588E-02    0.723E-02
RMM:   4    -0.179450310232E+04    0.59268E-04   -0.28841E-04  1073   0.150E-02
  974 T=  4179. E= -.16577609E+04 F= -.17945031E+04 E0= -.17945031E+04  EK= 0.13073E+03 SP= 0.60E+01 SK= 0.17E-01
       N       E                     dE             d eps       ncg     rms          rms(c)
DAV:   1    -0.179405187380E+04    0.45129E+00   -0.11273E-01  2840   0.331E+00    0.104E-01
RMM:   2    -0.179406442730E+04   -0.12553E-01   -0.12643E-01  1568   0.352E-01    0.989E-02
RMM:   3    -0.179406482583E+04   -0.39853E-03   -0.65653E-03  1799   0.599E-02    0.818E-02
RMM:   4    -0.179406475978E+04    0.66045E-04   -0.28093E-04  1065   0.147E-02
  975 T=  4174. E= -.16577597E+04 F= -.17940648E+04 E0= -.17940648E+04  EK= 0.13056E+03 SP= 0.57E+01 SK= 0.57E-02
       N       E                     dE             d eps       ncg     rms          rms(c)
DAV:   1    -0.179361464147E+04    0.45018E+00   -0.11814E-01  2840   0.330E+00    0.134E-01
RMM:   2    -0.179362679251E+04   -0.12151E-01   -0.12398E-01  1568   0.351E-01    0.923E-02
RMM:   3    -0.179362716253E+04   -0.37002E-03   -0.62012E-03  1797   0.592E-02    0.708E-02
RMM:   4    -0.179362711357E+04    0.48960E-04   -0.30627E-04  1077   0.156E-02
  976 T=  4164. E= -.16577582E+04 F= -.17936271E+04 E0= -.17936271E+04  EK= 0.13025E+03 SP= 0.56E+01 SK= 0.54E-03
       N       E                     dE             d eps       ncg     rms          rms(c)
DAV:   1    -0.179319980743E+04    0.42736E+00   -0.12131E-01  2816   0.330E+00    0.142E-01
RMM:   2    -0.179321193500E+04   -0.12128E-01   -0.12443E-01  1568   0.355E-01    0.906E-02
RMM:   3    -0.179321225481E+04   -0.31980E-03   -0.59447E-03  1789   0.586E-02    0.681E-02
RMM:   4    -0.179321220286E+04    0.51945E-04   -0.28333E-04  1066   0.147E-02
  977 T=  4150. E= -.16577561E+04 F= -.17932122E+04 E0= -.17932122E+04  EK= 0.12983E+03 SP= 0.56E+01 SK= 0.65E-03
       N       E                     dE             d eps       ncg     rms          rms(c)
DAV:   1    -0.179282452315E+04    0.38773E+00   -0.11911E-01  2816   0.330E+00    0.104E-01
RMM:   2    -0.179283656156E+04   -0.12038E-01   -0.12114E-01  1568   0.350E-01    0.981E-02
RMM:   3    -0.179283690166E+04   -0.34010E-03   -0.59921E-03  1799   0.582E-02    0.819E-02
RMM:   4    -0.179283683838E+04    0.63289E-04   -0.26827E-04  1057   0.144E-02
  978 T=  4134. E= -.16577545E+04 F= -.17928368E+04 E0= -.17928368E+04  EK= 0.12933E+03 SP= 0.57E+01 SK= 0.49E-02
       N       E                     dE             d eps       ncg     rms          rms(c)
DAV:   1    -0.179249833099E+04    0.33857E+00   -0.13405E-01  2792   0.328E+00    0.134E-01
RMM:   2    -0.179251058112E+04   -0.12250E-01   -0.12486E-01  1568   0.354E-01    0.912E-02
RMM:   3    -0.179251095311E+04   -0.37199E-03   -0.61876E-03  1798   0.595E-02    0.706E-02
RMM:   4    -0.179251090920E+04    0.43914E-04   -0.29969E-04  1079   0.152E-02
  979 T=  4117. E= -.16577529E+04 F= -.17925109E+04 E0= -.17925109E+04  EK= 0.12877E+03 SP= 0.60E+01 SK= 0.12E-01
       N       E                     dE             d eps       ncg     rms          rms(c)
DAV:   1    -0.179222455862E+04    0.28639E+00   -0.11475E-01  2856   0.328E+00    0.138E-01
RMM:   2    -0.179223684023E+04   -0.12282E-01   -0.12573E-01  1568   0.352E-01    0.852E-02
RMM:   3    -0.179223722576E+04   -0.38553E-03   -0.63640E-03  1799   0.594E-02    0.640E-02
RMM:   4    -0.179223718007E+04    0.45684E-04   -0.26762E-04  1059   0.142E-02
  980 T=  4098. E= -.16577514E+04 F= -.17922372E+04 E0= -.17922372E+04  EK= 0.12818E+03 SP= 0.63E+01 SK= 0.20E-01
       N       E                     dE             d eps       ncg     rms          rms(c)
DAV:   1    -0.179199990685E+04    0.23732E+00   -0.10136E-01  2824   0.327E+00    0.103E-01
RMM:   2    -0.179201105207E+04   -0.11145E-01   -0.11214E-01  1568   0.340E-01    0.919E-02
RMM:   3    -0.179201138841E+04   -0.33634E-03   -0.56951E-03  1780   0.565E-02    0.759E-02
RMM:   4    -0.179201133203E+04    0.56385E-04   -0.25917E-04  1055   0.141E-02
  981 T=  4078. E= -.16577506E+04 F= -.17920113E+04 E0= -.17920113E+04  EK= 0.12755E+03 SP= 0.67E+01 SK= 0.29E-01
       N       E                     dE             d eps       ncg     rms          rms(c)
DAV:   1    -0.179181033842E+04    0.20105E+00   -0.10364E-01  2824   0.325E+00    0.129E-01
RMM:   2    -0.179182131478E+04   -0.10976E-01   -0.11191E-01  1568   0.340E-01    0.853E-02
RMM:   3    -0.179182165760E+04   -0.34283E-03   -0.55916E-03  1785   0.563E-02    0.654E-02
RMM:   4    -0.179182161734E+04    0.40263E-04   -0.26968E-04  1056   0.146E-02
  982 T=  4057. E= -.16577497E+04 F= -.17918216E+04 E0= -.17918216E+04  EK= 0.12691E+03 SP= 0.71E+01 SK= 0.36E-01
       N       E                     dE             d eps       ncg     rms          rms(c)
DAV:   1    -0.179164075904E+04    0.18090E+00   -0.10325E-01  2824   0.324E+00    0.137E-01
RMM:   2    -0.179165195115E+04   -0.11192E-01   -0.11485E-01  1569   0.344E-01    0.842E-02
RMM:   3    -0.179165227628E+04   -0.32513E-03   -0.56174E-03  1802   0.567E-02    0.633E-02
RMM:   4    -0.179165222881E+04    0.47469E-04   -0.25825E-04  1057   0.141E-02
  983 T=  4036. E= -.16577488E+04 F= -.17916522E+04 E0= -.17916522E+04  EK= 0.12624E+03 SP= 0.76E+01 SK= 0.42E-01
       N       E                     dE             d eps       ncg     rms          rms(c)
DAV:   1    -0.179147306106E+04    0.17922E+00   -0.95802E-02  2880   0.323E+00    0.101E-01
RMM:   2    -0.179148393246E+04   -0.10871E-01   -0.10943E-01  1568   0.336E-01    0.924E-02
RMM:   3    -0.179148425328E+04   -0.32081E-03   -0.55095E-03  1790   0.557E-02    0.763E-02
RMM:   4    -0.179148419369E+04    0.59588E-04   -0.25564E-04  1047   0.140E-02
  984 T=  4013. E= -.16577479E+04 F= -.17914842E+04 E0= -.17914842E+04  EK= 0.12555E+03 SP= 0.81E+01 SK= 0.45E-01
       N       E                     dE             d eps       ncg     rms          rms(c)
DAV:   1    -0.179128875357E+04    0.19550E+00   -0.83913E-02  2856   0.321E+00    0.124E-01
RMM:   2    -0.179129900585E+04   -0.10252E-01   -0.10463E-01  1569   0.328E-01    0.847E-02
RMM:   3    -0.179129933917E+04   -0.33331E-03   -0.53442E-03  1786   0.546E-02    0.640E-02
RMM:   4    -0.179129929797E+04    0.41195E-04   -0.27102E-04  1051   0.147E-02
  985 T=  3991. E= -.16577466E+04 F= -.17912993E+04 E0= -.17912993E+04  EK= 0.12483E+03 SP= 0.87E+01 SK= 0.45E-01
       N       E                     dE             d eps       ncg     rms          rms(c)
DAV:   1    -0.179107270828E+04    0.22663E+00   -0.78217E-02  2840   0.320E+00    0.137E-01
RMM:   2    -0.179108308528E+04   -0.10377E-01   -0.10701E-01  1569   0.330E-01    0.822E-02
RMM:   3    -0.179108340103E+04   -0.31575E-03   -0.53520E-03  1790   0.548E-02    0.599E-02
RMM:   4    -0.179108335290E+04    0.48136E-04   -0.26204E-04  1054   0.143E-02
  986 T=  3967. E= -.16577445E+04 F= -.17910834E+04 E0= -.17910834E+04  EK= 0.12409E+03 SP= 0.92E+01 SK= 0.42E-01
       N       E                     dE             d eps       ncg     rms          rms(c)
DAV:   1    -0.179081759044E+04    0.26581E+00   -0.77561E-02  2872   0.318E+00    0.958E-02
RMM:   2    -0.179082770964E+04   -0.10119E-01   -0.10190E-01  1569   0.323E-01    0.918E-02
RMM:   3    -0.179082801513E+04   -0.30549E-03   -0.51898E-03  1776   0.537E-02    0.754E-02
RMM:   4    -0.179082795167E+04    0.63463E-04   -0.24968E-04  1042   0.141E-02
  987 T=  3943. E= -.16577423E+04 F= -.17908280E+04 E0= -.17908280E+04  EK= 0.12335E+03 SP= 0.97E+01 SK= 0.37E-01
       N       E                     dE             d eps       ncg     rms          rms(c)
DAV:   1    -0.179052305748E+04    0.30496E+00   -0.77540E-02  2856   0.316E+00    0.119E-01
RMM:   2    -0.179053262753E+04   -0.95700E-02   -0.97711E-02  1568   0.317E-01    0.864E-02
RMM:   3    -0.179053294468E+04   -0.31715E-03   -0.50617E-03  1771   0.528E-02    0.653E-02
RMM:   4    -0.179053290185E+04    0.42837E-04   -0.27628E-04  1053   0.151E-02
  988 T=  3920. E= -.16577391E+04 F= -.17905329E+04 E0= -.17905329E+04  EK= 0.12261E+03 SP= 0.10E+02 SK= 0.29E-01
       N       E                     dE             d eps       ncg     rms          rms(c)
DAV:   1    -0.179019860018E+04    0.33434E+00   -0.80306E-02  2872   0.315E+00    0.142E-01
RMM:   2    -0.179020834532E+04   -0.97451E-02   -0.10119E-01  1569   0.323E-01    0.830E-02
RMM:   3    -0.179020860290E+04   -0.25759E-03   -0.48192E-03  1776   0.526E-02    0.596E-02
RMM:   4    -0.179020855525E+04    0.47657E-04   -0.25503E-04  1047   0.143E-02
  989 T=  3897. E= -.16577353E+04 F= -.17902086E+04 E0= -.17902086E+04  EK= 0.12190E+03 SP= 0.11E+02 SK= 0.20E-01
       N       E                     dE             d eps       ncg     rms          rms(c)
DAV:   1    -0.178986205860E+04    0.34654E+00   -0.83838E-02  2848   0.314E+00    0.910E-02
RMM:   2    -0.178987167459E+04   -0.96160E-02   -0.96735E-02  1569   0.315E-01    0.967E-02
RMM:   3    -0.178987191819E+04   -0.24360E-03   -0.46878E-03  1767   0.515E-02    0.810E-02
RMM:   4    -0.178987184872E+04    0.69468E-04   -0.25376E-04  1038   0.142E-02
  990 T=  3877. E= -.16577320E+04 F= -.17898718E+04 E0= -.17898718E+04  EK= 0.12126E+03 SP= 0.11E+02 SK= 0.11E-01
       N       E                     dE             d eps       ncg     rms          rms(c)
DAV:   1    -0.178953618149E+04    0.33574E+00   -0.83222E-02  2832   0.312E+00    0.116E-01
RMM:   2    -0.178954568833E+04   -0.95068E-02   -0.96928E-02  1569   0.311E-01    0.897E-02
RMM:   3    -0.178954598730E+04   -0.29896E-03   -0.49423E-03  1778   0.523E-02    0.690E-02
RMM:   4    -0.178954594683E+04    0.40471E-04   -0.28007E-04  1059   0.151E-02
  991 T=  3859. E= -.16577291E+04 F= -.17895459E+04 E0= -.17895459E+04  EK= 0.12073E+03 SP= 0.11E+02 SK= 0.44E-02
       N       E                     dE             d eps       ncg     rms          rms(c)
DAV:   1    -0.178924629188E+04    0.29970E+00   -0.80872E-02  2824   0.311E+00    0.150E-01
RMM:   2    -0.178925585905E+04   -0.95672E-02   -0.99961E-02  1569   0.315E-01    0.758E-02
RMM:   3    -0.178925613908E+04   -0.28003E-03   -0.49807E-03  1774   0.527E-02    0.522E-02
RMM:   4    -0.178925610048E+04    0.38605E-04   -0.23905E-04  1031   0.138E-02
  992 T=  3847. E= -.16577269E+04 F= -.17892561E+04 E0= -.17892561E+04  EK= 0.12033E+03 SP= 0.11E+02 SK= 0.42E-03
       N       E                     dE             d eps       ncg     rms          rms(c)
DAV:   1    -0.178901451320E+04    0.24163E+00   -0.82643E-02  2832   0.311E+00    0.852E-02
RMM:   2    -0.178902395901E+04   -0.94458E-02   -0.94794E-02  1568   0.307E-01    0.914E-02
RMM:   3    -0.178902422263E+04   -0.26362E-03   -0.47950E-03  1758   0.516E-02    0.777E-02
RMM:   4    -0.178902415862E+04    0.64014E-04   -0.23114E-04  1029   0.135E-02
  993 T=  3840. E= -.16577263E+04 F= -.17890242E+04 E0= -.17890242E+04  EK= 0.12011E+03 SP= 0.11E+02 SK= 0.79E-03
       N       E                     dE             d eps       ncg     rms          rms(c)
DAV:   1    -0.178885770107E+04    0.16652E+00   -0.80280E-02  2832   0.309E+00    0.108E-01
RMM:   2    -0.178886672643E+04   -0.90254E-02   -0.91699E-02  1568   0.299E-01    0.829E-02
RMM:   3    -0.178886702308E+04   -0.29665E-03   -0.47720E-03  1758   0.511E-02    0.646E-02
RMM:   4    -0.178886698837E+04    0.34708E-04   -0.26269E-04  1041   0.146E-02
  994 T=  3839. E= -.16577275E+04 F= -.17888670E+04 E0= -.17888670E+04  EK= 0.12008E+03 SP= 0.11E+02 SK= 0.61E-02
       N       E                     dE             d eps       ncg     rms          rms(c)
DAV:   1    -0.178878380310E+04    0.83220E-01   -0.73136E-02  2864   0.310E+00    0.147E-01
RMM:   2    -0.178879311226E+04   -0.93092E-02   -0.97419E-02  1568   0.304E-01    0.706E-02
RMM:   3    -0.178879341291E+04   -0.30065E-03   -0.49534E-03  1759   0.520E-02    0.485E-02
RMM:   4    -0.178879337869E+04    0.34222E-04   -0.23378E-04  1026   0.136E-02
  995 T=  3844. E= -.16577300E+04 F= -.17887934E+04 E0= -.17887934E+04  EK= 0.12025E+03 SP= 0.11E+02 SK= 0.16E-01
       N       E                     dE             d eps       ncg     rms          rms(c)
DAV:   1    -0.178879303337E+04    0.37954E-03   -0.74673E-02  2840   0.311E+00    0.850E-02
RMM:   2    -0.178880182829E+04   -0.87949E-02   -0.88317E-02  1569   0.294E-01    0.849E-02
RMM:   3    -0.178880208071E+04   -0.25241E-03   -0.44891E-03  1752   0.499E-02    0.713E-02
RMM:   4    -0.178880202381E+04    0.56893E-04   -0.22464E-04  1024   0.133E-02
  996 T=  3856. E= -.16577345E+04 F= -.17888020E+04 E0= -.17888020E+04  EK= 0.12062E+03 SP= 0.10E+02 SK= 0.30E-01
       N       E                     dE             d eps       ncg     rms          rms(c)
DAV:   1    -0.178887487112E+04   -0.72790E-01   -0.76678E-02  2824   0.310E+00    0.108E-01
RMM:   2    -0.178888339917E+04   -0.85280E-02   -0.86842E-02  1568   0.292E-01    0.813E-02
RMM:   3    -0.178888368137E+04   -0.28220E-03   -0.45134E-03  1760   0.500E-02    0.631E-02
RMM:   4    -0.178888364671E+04    0.34657E-04   -0.25545E-04  1035   0.145E-02
  997 T=  3873. E= -.16577408E+04 F= -.17888836E+04 E0= -.17888836E+04  EK= 0.12116E+03 SP= 0.99E+01 SK= 0.47E-01
       N       E                     dE             d eps       ncg     rms          rms(c)
DAV:   1    -0.178901359309E+04   -0.12991E+00   -0.76359E-02  2848   0.312E+00    0.145E-01
RMM:   2    -0.178902266149E+04   -0.90684E-02   -0.94981E-02  1568   0.303E-01    0.747E-02
RMM:   3    -0.178902294831E+04   -0.28682E-03   -0.48172E-03  1767   0.517E-02    0.530E-02
RMM:   4    -0.178902290830E+04    0.40010E-04   -0.24915E-04  1033   0.142E-02
  998 T=  3896. E= -.16577477E+04 F= -.17890229E+04 E0= -.17890229E+04  EK= 0.12186E+03 SP= 0.93E+01 SK= 0.63E-01
       N       E                     dE             d eps       ncg     rms          rms(c)
DAV:   1    -0.178919240140E+04   -0.16945E+00   -0.77683E-02  2824   0.314E+00    0.874E-02
RMM:   2    -0.178920162983E+04   -0.92284E-02   -0.92821E-02  1569   0.300E-01    0.906E-02
RMM:   3    -0.178920190827E+04   -0.27844E-03   -0.48156E-03  1765   0.516E-02    0.764E-02
RMM:   4    -0.178920184067E+04    0.67602E-04   -0.25148E-04  1032   0.142E-02
  999 T=  3922. E= -.16577552E+04 F= -.17892018E+04 E0= -.17892018E+04  EK= 0.12269E+03 SP= 0.87E+01 SK= 0.78E-01
       N       E                     dE             d eps       ncg     rms          rms(c)
DAV:   1    -0.178939443336E+04   -0.19253E+00   -0.86502E-02  2824   0.314E+00    0.115E-01
RMM:   2    -0.178940373071E+04   -0.92973E-02   -0.94863E-02  1569   0.303E-01    0.869E-02
RMM:   3    -0.178940403636E+04   -0.30565E-03   -0.49047E-03  1781   0.524E-02    0.675E-02
RMM:   4    -0.178940399296E+04    0.43400E-04   -0.30025E-04  1060   0.158E-02
 1000 T=  3951. E= -.16577633E+04 F= -.17894040E+04 E0= -.17894040E+04  EK= 0.12359E+03 SP= 0.80E+01 SK= 0.90E-01
