       N       E                     dE             d eps       ncg     rms          rms(c)
DAV:   1     0.783401673908E+04    0.78340E+04   -0.59061E+05  1576   0.124E+03
DAV:   2    -0.131942826589E+04   -0.91534E+04   -0.89213E+04  1880   0.324E+02
DAV:   3    -0.204227206295E+04   -0.72284E+03   -0.71696E+03  1816   0.985E+01
DAV:   4    -0.205728675075E+04   -0.15015E+02   -0.14956E+02  1888   0.145E+01
DAV:   5    -0.205762485870E+04   -0.33811E+00   -0.33752E+00  1792   0.202E+00    0.125E+02
RMM:   6    -0.178941003015E+04    0.26821E+03   -0.11310E+03  1568   0.327E+01    0.500E+01
RMM:   7    -0.178590397037E+04    0.35061E+01   -0.45696E+01  1589   0.570E+00    0.260E+01
RMM:   8    -0.178475386353E+04    0.11501E+01   -0.99836E+00  1568   0.403E+00    0.449E+00
RMM:   9    -0.178460589457E+04    0.14797E+00   -0.11711E+00  1573   0.989E-01    0.170E+00
RMM:  10    -0.178465931104E+04   -0.53416E-01   -0.46123E-01  1581   0.589E-01    0.118E+00
RMM:  11    -0.178466948414E+04   -0.10173E-01   -0.76892E-02  1569   0.289E-01    0.316E-01
RMM:  12    -0.178467204408E+04   -0.25599E-02   -0.15665E-02  1615   0.114E-01    0.148E-01
RMM:  13    -0.178467190744E+04    0.13664E-03   -0.40770E-03  1583   0.511E-02    0.710E-02
RMM:  14    -0.178467192715E+04   -0.19709E-04   -0.14745E-03  1409   0.312E-02    0.321E-02
RMM:  15    -0.178467191548E+04    0.11668E-04   -0.34809E-04  1107   0.150E-02
    1 T=  3995. E= -.16596963E+04 F= -.17846719E+04 E0= -.17846719E+04  EK= 0.12498E+03 SP= 0.00E+00 SK= 0.55E-06
       N       E                     dE             d eps       ncg     rms          rms(c)
DAV:   1    -0.178437793906E+04    0.29399E+00   -0.15311E+02  1680   0.168E+01    0.408E+00
RMM:   2    -0.178469171923E+04   -0.31378E+00   -0.38610E+00  1568   0.237E+00    0.138E+00
RMM:   3    -0.178464115792E+04    0.50561E-01   -0.10278E-01  1575   0.355E-01    0.791E-01
RMM:   4    -0.178462648418E+04    0.14674E-01   -0.77336E-02  1568   0.260E-01    0.187E-01
RMM:   5    -0.178462592669E+04    0.55749E-03   -0.33105E-03  1584   0.508E-02    0.939E-02
RMM:   6    -0.178462580071E+04    0.12598E-03   -0.58688E-04  1298   0.205E-02    0.406E-02
RMM:   7    -0.178462575025E+04    0.50465E-04   -0.20831E-04   947   0.137E-02
    2 T=  3994. E= -.16596959E+04 F= -.17846258E+04 E0= -.17846258E+04  EK= 0.12493E+03 SP= -.37E-02 SK= 0.59E-05
       N       E                     dE             d eps       ncg     rms          rms(c)
DAV:   1    -0.178457381695E+04    0.51984E-01   -0.79835E-01  1816   0.367E+00    0.669E-01
RMM:   2    -0.178463934204E+04   -0.65525E-01   -0.69703E-01  1568   0.990E-01    0.468E-01
RMM:   3    -0.178463371141E+04    0.56306E-02   -0.10887E-02  1685   0.963E-02    0.329E-01
RMM:   4    -0.178463224206E+04    0.14694E-02   -0.57048E-03  1565   0.718E-02    0.139E-01
RMM:   5    -0.178463222616E+04    0.15895E-04   -0.24138E-04   949   0.162E-02
    3 T=  3994. E= -.16596950E+04 F= -.17846322E+04 E0= -.17846322E+04  EK= 0.12495E+03 SP= -.12E-01 SK= 0.18E-04
       N       E                     dE             d eps       ncg     rms          rms(c)
DAV:   1    -0.178467530590E+04   -0.43064E-01   -0.22692E-01  2768   0.324E+00    0.196E-01
RMM:   2    -0.178469149009E+04   -0.16184E-01   -0.16649E-01  1568   0.412E-01    0.123E-01
RMM:   3    -0.178469167637E+04   -0.18628E-03   -0.71799E-03  1781   0.669E-02    0.915E-02
RMM:   4    -0.178469156993E+04    0.10645E-03   -0.44598E-04  1180   0.187E-02    0.540E-02
RMM:   5    -0.178469154981E+04    0.20115E-04   -0.89087E-05   920   0.907E-03
    4 T=  3997. E= -.16596958E+04 F= -.17846915E+04 E0= -.17846915E+04  EK= 0.12502E+03 SP= -.25E-01 SK= 0.32E-04
       N       E                     dE             d eps       ncg     rms          rms(c)
DAV:   1    -0.178478960689E+04   -0.98037E-01   -0.93681E-02  2992   0.322E+00    0.174E-01
RMM:   2    -0.178479966063E+04   -0.10054E-01   -0.10603E-01  1568   0.333E-01    0.937E-02
RMM:   3    -0.178479990329E+04   -0.24266E-03   -0.51978E-03  1769   0.535E-02    0.654E-02
RMM:   4    -0.178479983518E+04    0.68116E-04   -0.28453E-04  1051   0.157E-02
    5 T=  4001. E= -.16596983E+04 F= -.17847998E+04 E0= -.17847998E+04  EK= 0.12514E+03 SP= -.40E-01 SK= 0.37E-04
       N       E                     dE             d eps       ncg     rms          rms(c)
DAV:   1    -0.178493983628E+04   -0.13993E+00   -0.78819E-02  2824   0.322E+00    0.119E-01
RMM:   2    -0.178495012910E+04   -0.10293E-01   -0.10546E-01  1568   0.336E-01    0.105E-01
RMM:   3    -0.178495033555E+04   -0.20645E-03   -0.49486E-03  1744   0.527E-02    0.844E-02
RMM:   4    -0.178495024548E+04    0.90068E-04   -0.27612E-04  1058   0.147E-02
    6 T=  4006. E= -.16597022E+04 F= -.17849502E+04 E0= -.17849502E+04  EK= 0.12530E+03 SP= -.55E-01 SK= 0.26E-04
       N       E                     dE             d eps       ncg     rms          rms(c)
DAV:   1    -0.178511982906E+04   -0.16949E+00   -0.76504E-02  2872   0.321E+00    0.106E-01
RMM:   2    -0.178512884490E+04   -0.90158E-02   -0.91409E-02  1568   0.311E-01    0.944E-02
RMM:   3    -0.178512911678E+04   -0.27188E-03   -0.47018E-03  1752   0.505E-02    0.748E-02
RMM:   4    -0.178512906552E+04    0.51252E-04   -0.27697E-04  1043   0.154E-02
    7 T=  4012. E= -.16597069E+04 F= -.17851291E+04 E0= -.17851291E+04  EK= 0.12549E+03 SP= -.65E-01 SK= 0.58E-05
       N       E                     dE             d eps       ncg     rms          rms(c)
DAV:   1    -0.178530860094E+04   -0.17948E+00   -0.81149E-02  2904   0.321E+00    0.160E-01
RMM:   2    -0.178531844082E+04   -0.98399E-02   -0.10372E-01  1568   0.330E-01    0.822E-02
RMM:   3    -0.178531869184E+04   -0.25102E-03   -0.48551E-03  1765   0.522E-02    0.553E-02
RMM:   4    -0.178531864357E+04    0.48268E-04   -0.24768E-04  1027   0.143E-02
    8 T=  4018. E= -.16597113E+04 F= -.17853186E+04 E0= -.17853186E+04  EK= 0.12567E+03 SP= -.67E-01 SK= 0.45E-05
       N       E                     dE             d eps       ncg     rms          rms(c)
DAV:   1    -0.178548569254E+04   -0.16700E+00   -0.56869E-02  2952   0.323E+00    0.939E-02
RMM:   2    -0.178549529693E+04   -0.96044E-02   -0.96702E-02  1568   0.311E-01    0.867E-02
RMM:   3    -0.178549561994E+04   -0.32301E-03   -0.52112E-03  1765   0.516E-02    0.701E-02
RMM:   4    -0.178549556328E+04    0.56665E-04   -0.21125E-04  1019   0.129E-02
    9 T=  4023. E= -.16597160E+04 F= -.17854956E+04 E0= -.17854956E+04  EK= 0.12583E+03 SP= -.55E-01 SK= 0.70E-04
       N       E                     dE             d eps       ncg     rms          rms(c)
DAV:   1    -0.178562431553E+04   -0.12870E+00   -0.68340E-02  2928   0.322E+00    0.107E-01
RMM:   2    -0.178563380321E+04   -0.94877E-02   -0.96253E-02  1568   0.314E-01    0.852E-02
RMM:   3    -0.178563410529E+04   -0.30208E-03   -0.49304E-03  1769   0.516E-02    0.659E-02
RMM:   4    -0.178563405770E+04    0.47590E-04   -0.24955E-04  1036   0.141E-02
   10 T=  4026. E= -.16597207E+04 F= -.17856341E+04 E0= -.17856341E+04  EK= 0.12594E+03 SP= -.25E-01 SK= 0.25E-03
       N       E                     dE             d eps       ncg     rms          rms(c)
DAV:   1    -0.178570077193E+04   -0.66667E-01   -0.75370E-02  2880   0.321E+00    0.140E-01
RMM:   2    -0.178571026096E+04   -0.94890E-02   -0.98422E-02  1568   0.319E-01    0.780E-02
RMM:   3    -0.178571053736E+04   -0.27640E-03   -0.47887E-03  1767   0.515E-02    0.551E-02
RMM:   4    -0.178571049698E+04    0.40375E-04   -0.22532E-04  1013   0.135E-02
   11 T=  4027. E= -.16597243E+04 F= -.17857105E+04 E0= -.17857105E+04  EK= 0.12596E+03 SP= 0.25E-01 SK= 0.58E-03
       N       E                     dE             d eps       ncg     rms          rms(c)
DAV:   1    -0.178569500773E+04    0.15530E-01   -0.92485E-02  2880   0.321E+00    0.103E-01
RMM:   2    -0.178570537465E+04   -0.10367E-01   -0.10472E-01  1568   0.328E-01    0.972E-02
RMM:   3    -0.178570562503E+04   -0.25038E-03   -0.50493E-03  1767   0.530E-02    0.791E-02
RMM:   4    -0.178570554942E+04    0.75602E-04   -0.25371E-04  1039   0.142E-02
   12 T=  4024. E= -.16597267E+04 F= -.17857055E+04 E0= -.17857055E+04  EK= 0.12588E+03 SP= 0.95E-01 SK= 0.10E-02
       N       E                     dE             d eps       ncg     rms          rms(c)
DAV:   1    -0.178559905156E+04    0.10657E+00   -0.85344E-02  2896   0.321E+00    0.112E-01
RMM:   2    -0.178560946550E+04   -0.10414E-01   -0.10546E-01  1568   0.323E-01    0.927E-02
RMM:   3    -0.178560980865E+04   -0.34315E-03   -0.55372E-03  1768   0.543E-02    0.725E-02
RMM:   4    -0.178560976158E+04    0.47072E-04   -0.27443E-04  1061   0.147E-02
   13 T=  4018. E= -.16597279E+04 F= -.17856098E+04 E0= -.17856098E+04  EK= 0.12570E+03 SP= 0.18E+00 SK= 0.15E-02
       N       E                     dE             d eps       ncg     rms          rms(c)
DAV:   1    -0.178541569396E+04    0.19411E+00   -0.95487E-02  2928   0.320E+00    0.158E-01
RMM:   2    -0.178542651985E+04   -0.10826E-01   -0.11296E-01  1568   0.336E-01    0.849E-02
RMM:   3    -0.178542682862E+04   -0.30877E-03   -0.55664E-03  1770   0.557E-02    0.581E-02
RMM:   4    -0.178542678136E+04    0.47263E-04   -0.28509E-04  1069   0.149E-02
   14 T=  4009. E= -.16597270E+04 F= -.17854268E+04 E0= -.17854268E+04  EK= 0.12541E+03 SP= 0.29E+00 SK= 0.18E-02
       N       E                     dE             d eps       ncg     rms          rms(c)
DAV:   1    -0.178516459382E+04    0.26223E+00   -0.10385E-01  2872   0.320E+00    0.102E-01
RMM:   2    -0.178517537158E+04   -0.10778E-01   -0.10870E-01  1568   0.333E-01    0.104E-01
RMM:   3    -0.178517563618E+04   -0.26460E-03   -0.53072E-03  1765   0.544E-02    0.861E-02
RMM:   4    -0.178517555342E+04    0.82764E-04   -0.27583E-04  1062   0.147E-02
   15 T=  3998. E= -.16597251E+04 F= -.17851756E+04 E0= -.17851756E+04  EK= 0.12505E+03 SP= 0.40E+00 SK= 0.19E-02
       N       E                     dE             d eps       ncg     rms          rms(c)
DAV:   1    -0.178487912245E+04    0.29651E+00   -0.11675E-01  2864   0.318E+00    0.125E-01
RMM:   2    -0.178488978877E+04   -0.10666E-01   -0.10866E-01  1568   0.334E-01    0.989E-02
RMM:   3    -0.178489009599E+04   -0.30722E-03   -0.54464E-03  1772   0.552E-02    0.764E-02
RMM:   4    -0.178489004163E+04    0.54365E-04   -0.32031E-04  1084   0.161E-02
   16 T=  3985. E= -.16597223E+04 F= -.17848900E+04 E0= -.17848900E+04  EK= 0.12466E+03 SP= 0.51E+00 SK= 0.17E-02
       N       E                     dE             d eps       ncg     rms          rms(c)
DAV:   1    -0.178460541759E+04    0.28468E+00   -0.94352E-02  2912   0.318E+00    0.165E-01
RMM:   2    -0.178461637346E+04   -0.10956E-01   -0.11487E-01  1568   0.336E-01    0.803E-02
RMM:   3    -0.178461672155E+04   -0.34808E-03   -0.59230E-03  1778   0.565E-02    0.535E-02
RMM:   4    -0.178461667798E+04    0.43565E-04   -0.27435E-04  1061   0.144E-02
   17 T=  3973. E= -.16597183E+04 F= -.17846167E+04 E0= -.17846167E+04  EK= 0.12429E+03 SP= 0.60E+00 SK= 0.12E-02
       N       E                     dE             d eps       ncg     rms          rms(c)
DAV:   1    -0.178439905476E+04    0.21767E+00   -0.11327E-01  2848   0.318E+00    0.950E-02
RMM:   2    -0.178441010566E+04   -0.11051E-01   -0.11113E-01  1568   0.335E-01    0.103E-01
RMM:   3    -0.178441039551E+04   -0.28986E-03   -0.56333E-03  1785   0.557E-02    0.875E-02
RMM:   4    -0.178441030890E+04    0.86613E-04   -0.26655E-04  1054   0.143E-02
   18 T=  3965. E= -.16597155E+04 F= -.17844103E+04 E0= -.17844103E+04  EK= 0.12402E+03 SP= 0.68E+00 SK= 0.64E-03
       N       E                     dE             d eps       ncg     rms          rms(c)
DAV:   1    -0.178431442572E+04    0.95970E-01   -0.12283E-01  2840   0.317E+00    0.115E-01
RMM:   2    -0.178432506132E+04   -0.10636E-01   -0.10783E-01  1568   0.330E-01    0.961E-02
RMM:   3    -0.178432538958E+04   -0.32826E-03   -0.55561E-03  1777   0.553E-02    0.761E-02
RMM:   4    -0.178432534312E+04    0.46460E-04   -0.29570E-04  1068   0.154E-02
   19 T=  3960. E= -.16597139E+04 F= -.17843253E+04 E0= -.17843253E+04  EK= 0.12388E+03 SP= 0.73E+00 SK= 0.18E-03
       N       E                     dE             d eps       ncg     rms          rms(c)
DAV:   1    -0.178439853173E+04   -0.73142E-01   -0.86028E-02  2848   0.317E+00    0.169E-01
RMM:   2    -0.178440894393E+04   -0.10412E-01   -0.11005E-01  1568   0.327E-01    0.765E-02
RMM:   3    -0.178440928906E+04   -0.34513E-03   -0.57501E-03  1776   0.555E-02    0.497E-02
RMM:   4    -0.178440924814E+04    0.40917E-04   -0.26496E-04  1048   0.145E-02
   20 T=  3962. E= -.16597136E+04 F= -.17844092E+04 E0= -.17844092E+04  EK= 0.12395E+03 SP= 0.75E+00 SK= 0.26E-05
       N       E                     dE             d eps       ncg     rms          rms(c)
DAV:   1    -0.178468465068E+04   -0.27536E+00   -0.90048E-02  2840   0.318E+00    0.902E-02
RMM:   2    -0.178469488456E+04   -0.10234E-01   -0.10280E-01  1568   0.318E-01    0.910E-02
RMM:   3    -0.178469520809E+04   -0.32353E-03   -0.55391E-03  1772   0.541E-02    0.771E-02
RMM:   4    -0.178469514177E+04    0.66326E-04   -0.22540E-04  1030   0.130E-02
   21 T=  3972. E= -.16597162E+04 F= -.17846951E+04 E0= -.17846951E+04  EK= 0.12424E+03 SP= 0.74E+00 SK= 0.74E-04
       N       E                     dE             d eps       ncg     rms          rms(c)
DAV:   1    -0.178518792579E+04   -0.49272E+00   -0.10539E-01  2848   0.317E+00    0.106E-01
RMM:   2    -0.178519776747E+04   -0.98417E-02   -0.99611E-02  1568   0.315E-01    0.879E-02
RMM:   3    -0.178519809061E+04   -0.32315E-03   -0.52395E-03  1781   0.533E-02    0.706E-02
RMM:   4    -0.178519804649E+04    0.44125E-04   -0.25726E-04  1039   0.145E-02
   22 T=  3989. E= -.16597214E+04 F= -.17851980E+04 E0= -.17851980E+04  EK= 0.12477E+03 SP= 0.70E+00 SK= 0.22E-03
       N       E                     dE             d eps       ncg     rms          rms(c)
DAV:   1    -0.178590327833E+04   -0.70519E+00   -0.99508E-02  2872   0.319E+00    0.160E-01
RMM:   2    -0.178591352453E+04   -0.10246E-01   -0.10760E-01  1568   0.324E-01    0.754E-02
RMM:   3    -0.178591385615E+04   -0.33162E-03   -0.55305E-03  1785   0.549E-02    0.515E-02
RMM:   4    -0.178591381688E+04    0.39262E-04   -0.24970E-04  1038   0.140E-02
   23 T=  4013. E= -.16597288E+04 F= -.17859138E+04 E0= -.17859138E+04  EK= 0.12552E+03 SP= 0.66E+00 SK= 0.21E-03
       N       E                     dE             d eps       ncg     rms          rms(c)
DAV:   1    -0.178680788272E+04   -0.89403E+00   -0.82921E-02  2904   0.322E+00    0.901E-02
RMM:   2    -0.178681778577E+04   -0.99030E-02   -0.99679E-02  1568   0.313E-01    0.896E-02
RMM:   3    -0.178681811216E+04   -0.32640E-03   -0.54197E-03  1765   0.534E-02    0.758E-02
RMM:   4    -0.178681804933E+04    0.62831E-04   -0.22347E-04  1026   0.131E-02
   24 T=  4042. E= -.16597389E+04 F= -.17868180E+04 E0= -.17868180E+04  EK= 0.12645E+03 SP= 0.63E+00 SK= 0.36E-04
       N       E                     dE             d eps       ncg     rms          rms(c)
DAV:   1    -0.178785910163E+04   -0.10410E+01   -0.86644E-02  2832   0.322E+00    0.105E-01
RMM:   2    -0.178786891857E+04   -0.98169E-02   -0.99367E-02  1568   0.311E-01    0.827E-02
RMM:   3    -0.178786928711E+04   -0.36854E-03   -0.54701E-03  1773   0.536E-02    0.653E-02
RMM:   4    -0.178786925031E+04    0.36802E-04   -0.24856E-04  1042   0.140E-02
   25 T=  4075. E= -.16597502E+04 F= -.17878693E+04 E0= -.17878693E+04  EK= 0.12749E+03 SP= 0.63E+00 SK= 0.15E-03
       N       E                     dE             d eps       ncg     rms          rms(c)
DAV:   1    -0.178900611253E+04   -0.11368E+01   -0.84937E-02  2864   0.325E+00    0.153E-01
RMM:   2    -0.178901586201E+04   -0.97495E-02   -0.10229E-01  1568   0.320E-01    0.784E-02
RMM:   3    -0.178901618102E+04   -0.31901E-03   -0.53048E-03  1782   0.537E-02    0.542E-02
RMM:   4    -0.178901613719E+04    0.43824E-04   -0.25132E-04  1037   0.143E-02
   26 T=  4110. E= -.16597619E+04 F= -.17890161E+04 E0= -.17890161E+04  EK= 0.12856E+03 SP= 0.69E+00 SK= 0.17E-02
       N       E                     dE             d eps       ncg     rms          rms(c)
DAV:   1    -0.179018921821E+04   -0.11730E+01   -0.81902E-02  2896   0.328E+00    0.922E-02
RMM:   2    -0.179019893141E+04   -0.97132E-02   -0.97888E-02  1568   0.314E-01    0.910E-02
RMM:   3    -0.179019925277E+04   -0.32135E-03   -0.52828E-03  1782   0.530E-02    0.766E-02
RMM:   4    -0.179019918931E+04    0.63453E-04   -0.22062E-04  1018   0.132E-02
   27 T=  4142. E= -.16597737E+04 F= -.17901992E+04 E0= -.17901992E+04  EK= 0.12958E+03 SP= 0.84E+00 SK= 0.64E-02
       N       E                     dE             d eps       ncg     rms          rms(c)
DAV:   1    -0.179134853840E+04   -0.11493E+01   -0.92147E-02  2824   0.329E+00    0.113E-01
RMM:   2    -0.179135823231E+04   -0.96939E-02   -0.98618E-02  1568   0.314E-01    0.855E-02
RMM:   3    -0.179135858697E+04   -0.35466E-03   -0.53387E-03  1788   0.535E-02    0.668E-02
RMM:   4    -0.179135854737E+04    0.39594E-04   -0.25992E-04  1036   0.146E-02
   28 T=  4171. E= -.16597847E+04 F= -.17913585E+04 E0= -.17913585E+04  EK= 0.13047E+03 SP= 0.11E+01 SK= 0.17E-01
       N       E                     dE             d eps       ncg     rms          rms(c)
DAV:   1    -0.179242708556E+04   -0.10685E+01   -0.10709E-01  2816   0.331E+00    0.159E-01
RMM:   2    -0.179243770605E+04   -0.10620E-01   -0.11134E-01  1568   0.332E-01    0.802E-02
RMM:   3    -0.179243803254E+04   -0.32650E-03   -0.55468E-03  1794   0.557E-02    0.553E-02
RMM:   4    -0.179243798978E+04    0.42763E-04   -0.26978E-04  1057   0.146E-02
   29 T=  4192. E= -.16597934E+04 F= -.17924380E+04 E0= -.17924380E+04  EK= 0.13113E+03 SP= 0.15E+01 SK= 0.34E-01
       N       E                     dE             d eps       ncg     rms          rms(c)
DAV:   1    -0.179337714287E+04   -0.93911E+00   -0.11686E-01  2800   0.334E+00    0.918E-02
RMM:   2    -0.179338856914E+04   -0.11426E-01   -0.11493E-01  1568   0.335E-01    0.994E-02
RMM:   3    -0.179338891479E+04   -0.34566E-03   -0.58886E-03  1793   0.569E-02    0.848E-02
RMM:   4    -0.179338884150E+04    0.73297E-04   -0.27024E-04  1056   0.144E-02
   30 T=  4204. E= -.16598006E+04 F= -.17933888E+04 E0= -.17933888E+04  EK= 0.13151E+03 SP= 0.20E+01 SK= 0.61E-01
       N       E                     dE             d eps       ncg     rms          rms(c)
DAV:   1    -0.179416275302E+04   -0.77384E+00   -0.77873E-02  2912   0.333E+00    0.108E-01
RMM:   2    -0.179417289249E+04   -0.10139E-01   -0.10285E-01  1568   0.315E-01    0.872E-02
RMM:   3    -0.179417331335E+04   -0.42086E-03   -0.58651E-03  1798   0.552E-02    0.688E-02
RMM:   4    -0.179417327583E+04    0.37517E-04   -0.28292E-04  1051   0.152E-02
   31 T=  4206. E= -.16598046E+04 F= -.17941733E+04 E0= -.17941733E+04  EK= 0.13157E+03 SP= 0.27E+01 SK= 0.96E-01
       N       E                     dE             d eps       ncg     rms          rms(c)
DAV:   1    -0.179476050509E+04   -0.58719E+00   -0.77405E-02  2896   0.333E+00    0.172E-01
RMM:   2    -0.179477018265E+04   -0.96776E-02   -0.10305E-01  1568   0.320E-01    0.741E-02
RMM:   3    -0.179477052038E+04   -0.33772E-03   -0.53982E-03  1794   0.542E-02    0.476E-02
RMM:   4    -0.179477048183E+04    0.38551E-04   -0.26377E-04  1037   0.147E-02
   32 T=  4196. E= -.16598050E+04 F= -.17947705E+04 E0= -.17947705E+04  EK= 0.13127E+03 SP= 0.36E+01 SK= 0.14E+00
       N       E                     dE             d eps       ncg     rms          rms(c)
DAV:   1    -0.179516464124E+04   -0.39412E+00   -0.80878E-02  2880   0.333E+00    0.818E-02
RMM:   2    -0.179517403117E+04   -0.93899E-02   -0.94325E-02  1568   0.312E-01    0.925E-02
RMM:   3    -0.179517432277E+04   -0.29160E-03   -0.49485E-03  1775   0.520E-02    0.800E-02
RMM:   4    -0.179517425345E+04    0.69316E-04   -0.21749E-04  1013   0.131E-02
   33 T=  4176. E= -.16598027E+04 F= -.17951743E+04 E0= -.17951743E+04  EK= 0.13063E+03 SP= 0.46E+01 SK= 0.19E+00
       N       E                     dE             d eps       ncg     rms          rms(c)
DAV:   1    -0.179538441502E+04   -0.21009E+00   -0.84986E-02  2872   0.331E+00    0.105E-01
RMM:   2    -0.179539400545E+04   -0.95904E-02   -0.97186E-02  1568   0.312E-01    0.889E-02
RMM:   3    -0.179539435969E+04   -0.35425E-03   -0.52452E-03  1795   0.534E-02    0.712E-02
RMM:   4    -0.179539432201E+04    0.37681E-04   -0.28389E-04  1054   0.153E-02
   34 T=  4145. E= -.16597983E+04 F= -.17953943E+04 E0= -.17953943E+04  EK= 0.12967E+03 SP= 0.57E+01 SK= 0.23E+00
       N       E                     dE             d eps       ncg     rms          rms(c)
DAV:   1    -0.179543939156E+04   -0.45032E-01   -0.10435E-01  2856   0.330E+00    0.177E-01
RMM:   2    -0.179545025785E+04   -0.10866E-01   -0.11535E-01  1568   0.335E-01    0.745E-02
RMM:   3    -0.179545060778E+04   -0.34993E-03   -0.57264E-03  1802   0.571E-02    0.489E-02
RMM:   4    -0.179545057050E+04    0.37276E-04   -0.28573E-04  1072   0.149E-02
   35 T=  4106. E= -.16597907E+04 F= -.17954506E+04 E0= -.17954506E+04  EK= 0.12844E+03 SP= 0.69E+01 SK= 0.27E+00
       N       E                     dE             d eps       ncg     rms          rms(c)
DAV:   1    -0.179535939072E+04    0.91217E-01   -0.12255E-01  2792   0.329E+00    0.867E-02
RMM:   2    -0.179537055191E+04   -0.11161E-01   -0.11196E-01  1568   0.332E-01    0.921E-02
RMM:   3    -0.179537087566E+04   -0.32375E-03   -0.56147E-03  1791   0.563E-02    0.797E-02
RMM:   4    -0.179537081224E+04    0.63416E-04   -0.24135E-04  1049   0.133E-02
   36 T=  4060. E= -.16597823E+04 F= -.17953708E+04 E0= -.17953708E+04  EK= 0.12701E+03 SP= 0.83E+01 SK= 0.30E+00
       N       E                     dE             d eps       ncg     rms          rms(c)
DAV:   1    -0.179517579092E+04    0.19508E+00   -0.98573E-02  2824   0.326E+00    0.966E-02
RMM:   2    -0.179518599959E+04   -0.10209E-01   -0.10295E-01  1568   0.316E-01    0.830E-02
RMM:   3    -0.179518638596E+04   -0.38638E-03   -0.56432E-03  1794   0.550E-02    0.679E-02
RMM:   4    -0.179518634953E+04    0.36434E-04   -0.25404E-04  1039   0.142E-02
   37 T=  4010. E= -.16597730E+04 F= -.17951863E+04 E0= -.17951863E+04  EK= 0.12544E+03 SP= 0.97E+01 SK= 0.31E+00
       N       E                     dE             d eps       ncg     rms          rms(c)
DAV:   1    -0.179491880396E+04    0.26758E+00   -0.92364E-02  2808   0.323E+00    0.167E-01
RMM:   2    -0.179492895599E+04   -0.10152E-01   -0.10731E-01  1568   0.322E-01    0.674E-02
RMM:   3    -0.179492931720E+04   -0.36121E-03   -0.55622E-03  1803   0.555E-02    0.431E-02
RMM:   4    -0.179492928660E+04    0.30602E-04   -0.25163E-04  1040   0.141E-02
   38 T=  3958. E= -.16597631E+04 F= -.17949293E+04 E0= -.17949293E+04  EK= 0.12382E+03 SP= 0.11E+02 SK= 0.30E+00
       N       E                     dE             d eps       ncg     rms          rms(c)
DAV:   1    -0.179461719838E+04    0.31212E+00   -0.10187E-01  2816   0.321E+00    0.886E-02
RMM:   2    -0.179462732622E+04   -0.10128E-01   -0.10180E-01  1568   0.317E-01    0.807E-02
RMM:   3    -0.179462764052E+04   -0.31430E-03   -0.52239E-03  1796   0.539E-02    0.682E-02
RMM:   4    -0.179462759088E+04    0.49636E-04   -0.19900E-04  1006   0.122E-02
   39 T=  3906. E= -.16597540E+04 F= -.17946276E+04 E0= -.17946276E+04  EK= 0.12219E+03 SP= 0.12E+02 SK= 0.28E+00
       N       E                     dE             d eps       ncg     rms          rms(c)
DAV:   1    -0.179429308631E+04    0.33455E+00   -0.11521E-01  2856   0.318E+00    0.943E-02
RMM:   2    -0.179430362054E+04   -0.10534E-01   -0.10604E-01  1568   0.317E-01    0.794E-02
RMM:   3    -0.179430400755E+04   -0.38701E-03   -0.57124E-03  1798   0.557E-02    0.658E-02
RMM:   4    -0.179430397192E+04    0.35626E-04   -0.24067E-04  1042   0.136E-02
   40 T=  3856. E= -.16597454E+04 F= -.17943040E+04 E0= -.17943040E+04  EK= 0.12063E+03 SP= 0.14E+02 SK= 0.24E+00
       N       E                     dE             d eps       ncg     rms          rms(c)
DAV:   1    -0.179396565196E+04    0.33836E+00   -0.11938E-01  2800   0.316E+00    0.153E-01
RMM:   2    -0.179397635139E+04   -0.10699E-01   -0.11151E-01  1568   0.327E-01    0.728E-02
RMM:   3    -0.179397670764E+04   -0.35625E-03   -0.57531E-03  1802   0.567E-02    0.512E-02
RMM:   4    -0.179397667274E+04    0.34897E-04   -0.25701E-04  1054   0.140E-02
   41 T=  3810. E= -.16597374E+04 F= -.17939767E+04 E0= -.17939767E+04  EK= 0.11919E+03 SP= 0.15E+02 SK= 0.20E+00
       N       E                     dE             d eps       ncg     rms          rms(c)
DAV:   1    -0.179364746013E+04    0.32925E+00   -0.10392E-01  2840   0.314E+00    0.928E-02
RMM:   2    -0.179365792613E+04   -0.10466E-01   -0.10536E-01  1568   0.317E-01    0.829E-02
RMM:   3    -0.179365827087E+04   -0.34474E-03   -0.56437E-03  1793   0.554E-02    0.695E-02
RMM:   4    -0.179365822373E+04    0.47137E-04   -0.20504E-04  1015   0.123E-02
   42 T=  3769. E= -.16597309E+04 F= -.17936582E+04 E0= -.17936582E+04  EK= 0.11791E+03 SP= 0.16E+02 SK= 0.14E+00
       N       E                     dE             d eps       ncg     rms          rms(c)
DAV:   1    -0.179334640694E+04    0.31186E+00   -0.10841E-01  2768   0.311E+00    0.955E-02
RMM:   2    -0.179335642330E+04   -0.10016E-01   -0.10092E-01  1568   0.311E-01    0.807E-02
RMM:   3    -0.179335677543E+04   -0.35213E-03   -0.53863E-03  1795   0.545E-02    0.665E-02
RMM:   4    -0.179335673884E+04    0.36594E-04   -0.22219E-04  1014   0.131E-02
   43 T=  3734. E= -.16597258E+04 F= -.17933567E+04 E0= -.17933567E+04  EK= 0.11682E+03 SP= 0.17E+02 SK= 0.90E-01
       N       E                     dE             d eps       ncg     rms          rms(c)
DAV:   1    -0.179306687868E+04    0.28990E+00   -0.12103E-01  2816   0.310E+00    0.148E-01
RMM:   2    -0.179307735981E+04   -0.10481E-01   -0.10883E-01  1568   0.323E-01    0.743E-02
RMM:   3    -0.179307770752E+04   -0.34771E-03   -0.55803E-03  1798   0.562E-02    0.527E-02
RMM:   4    -0.179307767332E+04    0.34202E-04   -0.25311E-04  1046   0.140E-02
   44 T=  3707. E= -.16597217E+04 F= -.17930777E+04 E0= -.17930777E+04  EK= 0.11594E+03 SP= 0.17E+02 SK= 0.45E-01
       N       E                     dE             d eps       ncg     rms          rms(c)
DAV:   1    -0.179281293281E+04    0.26477E+00   -0.12118E-01  2784   0.309E+00    0.997E-02
RMM:   2    -0.179282350911E+04   -0.10576E-01   -0.10675E-01  1568   0.318E-01    0.852E-02
RMM:   3    -0.179282384808E+04   -0.33896E-03   -0.56814E-03  1794   0.558E-02    0.702E-02
RMM:   4    -0.179282380163E+04    0.46451E-04   -0.21347E-04  1021   0.126E-02
   45 T=  3686. E= -.16597192E+04 F= -.17928238E+04 E0= -.17928238E+04  EK= 0.11531E+03 SP= 0.18E+02 SK= 0.14E-01
       N       E                     dE             d eps       ncg     rms          rms(c)
DAV:   1    -0.179258639101E+04    0.23746E+00   -0.12465E-01  2808   0.307E+00    0.945E-02
RMM:   2    -0.179259649937E+04   -0.10108E-01   -0.10183E-01  1568   0.312E-01    0.873E-02
RMM:   3    -0.179259684733E+04   -0.34795E-03   -0.55171E-03  1793   0.549E-02    0.731E-02
RMM:   4    -0.179259680364E+04    0.43689E-04   -0.23753E-04  1030   0.136E-02
   46 T=  3674. E= -.16597187E+04 F= -.17925968E+04 E0= -.17925968E+04  EK= 0.11492E+03 SP= 0.18E+02 SK= 0.36E-03
       N       E                     dE             d eps       ncg     rms          rms(c)
DAV:   1    -0.179238557425E+04    0.21127E+00   -0.12002E-01  2816   0.306E+00    0.140E-01
RMM:   2    -0.179239579934E+04   -0.10225E-01   -0.10571E-01  1568   0.316E-01    0.773E-02
RMM:   3    -0.179239615994E+04   -0.36060E-03   -0.56509E-03  1800   0.557E-02    0.561E-02
RMM:   4    -0.179239612583E+04    0.34108E-04   -0.25222E-04  1044   0.140E-02
   47 T=  3670. E= -.16597193E+04 F= -.17923961E+04 E0= -.17923961E+04  EK= 0.11479E+03 SP= 0.18E+02 SK= 0.69E-02
       N       E                     dE             d eps       ncg     rms          rms(c)
DAV:   1    -0.179221045100E+04    0.18571E+00   -0.11665E-01  2792   0.307E+00    0.109E-01
RMM:   2    -0.179222099899E+04   -0.10548E-01   -0.10692E-01  1568   0.316E-01    0.792E-02
RMM:   3    -0.179222135400E+04   -0.35501E-03   -0.57335E-03  1804   0.559E-02    0.631E-02
RMM:   4    -0.179222131210E+04    0.41898E-04   -0.21731E-04  1031   0.126E-02
   48 T=  3674. E= -.16597217E+04 F= -.17922213E+04 E0= -.17922213E+04  EK= 0.11492E+03 SP= 0.18E+02 SK= 0.34E-01
       N       E                     dE             d eps       ncg     rms          rms(c)
DAV:   1    -0.179206001290E+04    0.16134E+00   -0.12051E-01  2784   0.307E+00    0.854E-02
RMM:   2    -0.179206999352E+04   -0.99806E-02   -0.10023E-01  1568   0.309E-01    0.839E-02
RMM:   3    -0.179207034619E+04   -0.35267E-03   -0.54981E-03  1798   0.545E-02    0.717E-02
RMM:   4    -0.179207030233E+04    0.43864E-04   -0.21440E-04  1020   0.127E-02
   49 T=  3686. E= -.16597259E+04 F= -.17920703E+04 E0= -.17920703E+04  EK= 0.11531E+03 SP= 0.17E+02 SK= 0.81E-01
       N       E                     dE             d eps       ncg     rms          rms(c)
DAV:   1    -0.179193031304E+04    0.14003E+00   -0.11458E-01  2808   0.307E+00    0.122E-01
RMM:   2    -0.179193988837E+04   -0.95753E-02   -0.98118E-02  1568   0.307E-01    0.771E-02
RMM:   3    -0.179194023389E+04   -0.34551E-03   -0.53179E-03  1798   0.539E-02    0.579E-02
RMM:   4    -0.179194020040E+04    0.33483E-04   -0.24233E-04  1039   0.137E-02
   50 T=  3706. E= -.16597316E+04 F= -.17919402E+04 E0= -.17919402E+04  EK= 0.11594E+03 SP= 0.16E+02 SK= 0.14E+00
       N       E                     dE             d eps       ncg     rms          rms(c)
DAV:   1    -0.179181719424E+04    0.12304E+00   -0.99691E-02  2848   0.308E+00    0.117E-01
RMM:   2    -0.179182655496E+04   -0.93607E-02   -0.95837E-02  1568   0.305E-01    0.717E-02
RMM:   3    -0.179182688842E+04   -0.33347E-03   -0.52205E-03  1789   0.533E-02    0.544E-02
RMM:   4    -0.179182685238E+04    0.36044E-04   -0.21441E-04  1029   0.127E-02
   51 T=  3734. E= -.16597389E+04 F= -.17918269E+04 E0= -.17918269E+04  EK= 0.11680E+03 SP= 0.15E+02 SK= 0.22E+00
       N       E                     dE             d eps       ncg     rms          rms(c)
DAV:   1    -0.179171270709E+04    0.11418E+00   -0.94999E-02  2848   0.310E+00    0.820E-02
RMM:   2    -0.179172188347E+04   -0.91764E-02   -0.92163E-02  1568   0.300E-01    0.777E-02
RMM:   3    -0.179172222333E+04   -0.33986E-03   -0.51653E-03  1791   0.525E-02    0.663E-02
RMM:   4    -0.179172218052E+04    0.42818E-04   -0.19499E-04   998   0.121E-02
   52 T=  3768. E= -.16597474E+04 F= -.17917222E+04 E0= -.17917222E+04  EK= 0.11787E+03 SP= 0.14E+02 SK= 0.29E+00
       N       E                     dE             d eps       ncg     rms          rms(c)
DAV:   1    -0.179160735689E+04    0.11487E+00   -0.10087E-01  2824   0.311E+00    0.107E-01
RMM:   2    -0.179161652091E+04   -0.91640E-02   -0.93185E-02  1568   0.302E-01    0.745E-02
RMM:   3    -0.179161686051E+04   -0.33960E-03   -0.50875E-03  1787   0.524E-02    0.582E-02
RMM:   4    -0.179161682843E+04    0.32080E-04   -0.21623E-04  1010   0.131E-02
   53 T=  3808. E= -.16597573E+04 F= -.17916168E+04 E0= -.17916168E+04  EK= 0.11911E+03 SP= 0.12E+02 SK= 0.37E+00
       N       E                     dE             d eps       ncg     rms          rms(c)
DAV:   1    -0.179148878720E+04    0.12807E+00   -0.11620E-01  2824   0.314E+00    0.124E-01
RMM:   2    -0.179149852399E+04   -0.97368E-02   -0.99978E-02  1568   0.314E-01    0.746E-02
RMM:   3    -0.179149884246E+04   -0.31847E-03   -0.51947E-03  1782   0.537E-02    0.558E-02
RMM:   4    -0.179149880521E+04    0.37249E-04   -0.23691E-04  1037   0.135E-02
   54 T=  3852. E= -.16597680E+04 F= -.17914988E+04 E0= -.17914988E+04  EK= 0.12051E+03 SP= 0.11E+02 SK= 0.44E+00
       N       E                     dE             d eps       ncg     rms          rms(c)
DAV:   1    -0.179134303613E+04    0.15581E+00   -0.10362E-01  2880   0.316E+00    0.877E-02
RMM:   2    -0.179135289774E+04   -0.98616E-02   -0.99139E-02  1568   0.312E-01    0.806E-02
RMM:   3    -0.179135325626E+04   -0.35852E-03   -0.55053E-03  1795   0.542E-02    0.682E-02
RMM:   4    -0.179135321165E+04    0.44608E-04   -0.20293E-04  1007   0.124E-02
   55 T=  3900. E= -.16597794E+04 F= -.17913532E+04 E0= -.17913532E+04  EK= 0.12200E+03 SP= 0.91E+01 SK= 0.49E+00
       N       E                     dE             d eps       ncg     rms          rms(c)
DAV:   1    -0.179115500281E+04    0.19825E+00   -0.83819E-02  2832   0.318E+00    0.100E-01
RMM:   2    -0.179116444953E+04   -0.94467E-02   -0.95606E-02  1568   0.306E-01    0.788E-02
RMM:   3    -0.179116481992E+04   -0.37039E-03   -0.54211E-03  1797   0.534E-02    0.631E-02
RMM:   4    -0.179116478315E+04    0.36776E-04   -0.22647E-04  1015   0.133E-02
   56 T=  3949. E= -.16597910E+04 F= -.17911648E+04 E0= -.17911648E+04  EK= 0.12354E+03 SP= 0.73E+01 SK= 0.52E+00
       N       E                     dE             d eps       ncg     rms          rms(c)
DAV:   1    -0.179091064271E+04    0.25418E+00   -0.10100E-01  2840   0.321E+00    0.134E-01
RMM:   2    -0.179092066434E+04   -0.10022E-01   -0.10319E-01  1568   0.321E-01    0.765E-02
RMM:   3    -0.179092100117E+04   -0.33683E-03   -0.54002E-03  1794   0.548E-02    0.564E-02
RMM:   4    -0.179092096468E+04    0.36491E-04   -0.24469E-04  1038   0.137E-02
   57 T=  3999. E= -.16598023E+04 F= -.17909210E+04 E0= -.17909210E+04  EK= 0.12509E+03 SP= 0.55E+01 SK= 0.54E+00
       N       E                     dE             d eps       ncg     rms          rms(c)
DAV:   1    -0.179059879798E+04    0.32220E+00   -0.12554E-01  2816   0.324E+00    0.101E-01
RMM:   2    -0.179060953361E+04   -0.10736E-01   -0.10828E-01  1568   0.331E-01    0.861E-02
RMM:   3    -0.179060986622E+04   -0.33261E-03   -0.55478E-03  1805   0.560E-02    0.716E-02
RMM:   4    -0.179060981612E+04    0.50098E-04   -0.23378E-04  1041   0.132E-02
   58 T=  4047. E= -.16598134E+04 F= -.17906098E+04 E0= -.17906098E+04  EK= 0.12660E+03 SP= 0.37E+01 SK= 0.53E+00
       N       E                     dE             d eps       ncg     rms          rms(c)
DAV:   1    -0.179020896292E+04    0.40090E+00   -0.10252E-01  2816   0.326E+00    0.964E-02
RMM:   2    -0.179021951625E+04   -0.10553E-01   -0.10640E-01  1568   0.325E-01    0.840E-02
RMM:   3    -0.179021991283E+04   -0.39658E-03   -0.58703E-03  1804   0.561E-02    0.696E-02
RMM:   4    -0.179021986859E+04    0.44245E-04   -0.23903E-04  1031   0.136E-02
   59 T=  4092. E= -.16598238E+04 F= -.17902199E+04 E0= -.17902199E+04  EK= 0.12801E+03 SP= 0.19E+01 SK= 0.49E+00
       N       E                     dE             d eps       ncg     rms          rms(c)
DAV:   1    -0.178973156068E+04    0.48835E+00   -0.93983E-02  2848   0.327E+00    0.135E-01
RMM:   2    -0.178974205999E+04   -0.10499E-01   -0.10810E-01  1568   0.329E-01    0.781E-02
RMM:   3    -0.178974243764E+04   -0.37765E-03   -0.58061E-03  1812   0.564E-02    0.574E-02
RMM:   4    -0.178974239752E+04    0.40117E-04   -0.26427E-04  1050   0.142E-02
   60 T=  4133. E= -.16598331E+04 F= -.17897424E+04 E0= -.17897424E+04  EK= 0.12929E+03 SP= 0.18E+00 SK= 0.45E+00
       N       E                     dE             d eps       ncg     rms          rms(c)
DAV:   1    -0.178915957540E+04    0.58286E+00   -0.11438E-01  2856   0.330E+00    0.113E-01
RMM:   2    -0.178917090796E+04   -0.11333E-01   -0.11482E-01  1568   0.340E-01    0.860E-02
RMM:   3    -0.178917126060E+04   -0.35263E-03   -0.58593E-03  1808   0.575E-02    0.689E-02
RMM:   4    -0.178917120888E+04    0.51715E-04   -0.25122E-04  1048   0.137E-02
   61 T=  4168. E= -.16598406E+04 F= -.17891712E+04 E0= -.17891712E+04  EK= 0.13038E+03 SP= -.14E+01 SK= 0.39E+00
       N       E                     dE             d eps       ncg     rms          rms(c)
DAV:   1    -0.178849350024E+04    0.67776E+00   -0.12228E-01  2816   0.331E+00    0.989E-02
RMM:   2    -0.178850497359E+04   -0.11473E-01   -0.11555E-01  1568   0.341E-01    0.886E-02
RMM:   3    -0.178850535846E+04   -0.38486E-03   -0.60260E-03  1812   0.578E-02    0.742E-02
RMM:   4    -0.178850530641E+04    0.52049E-04   -0.25411E-04  1043   0.139E-02
   62 T=  4196. E= -.16598469E+04 F= -.17885053E+04 E0= -.17885053E+04  EK= 0.13125E+03 SP= -.29E+01 SK= 0.32E+00
       N       E                     dE             d eps       ncg     rms          rms(c)
DAV:   1    -0.178773564080E+04    0.76972E+00   -0.11538E-01  2816   0.331E+00    0.132E-01
RMM:   2    -0.178774738132E+04   -0.11741E-01   -0.12026E-01  1568   0.344E-01    0.862E-02
RMM:   3    -0.178774778135E+04   -0.40004E-03   -0.62858E-03  1810   0.587E-02    0.651E-02
RMM:   4    -0.178774773395E+04    0.47402E-04   -0.28969E-04  1068   0.150E-02
   63 T=  4216. E= -.16598515E+04 F= -.17877477E+04 E0= -.17877477E+04  EK= 0.13188E+03 SP= -.42E+01 SK= 0.25E+00
       N       E                     dE             d eps       ncg     rms          rms(c)
DAV:   1    -0.178689474239E+04    0.85304E+00   -0.10106E-01  2824   0.332E+00    0.123E-01
RMM:   2    -0.178690616704E+04   -0.11425E-01   -0.11645E-01  1568   0.339E-01    0.854E-02
RMM:   3    -0.178690653905E+04   -0.37201E-03   -0.60667E-03  1806   0.576E-02    0.659E-02
RMM:   4    -0.178690648633E+04    0.52722E-04   -0.26244E-04  1052   0.141E-02
   64 T=  4228. E= -.16598539E+04 F= -.17869065E+04 E0= -.17869065E+04  EK= 0.13226E+03 SP= -.54E+01 SK= 0.19E+00
       N       E                     dE             d eps       ncg     rms          rms(c)
DAV:   1    -0.178598417357E+04    0.92237E+00   -0.10879E-01  2832   0.331E+00    0.106E-01
RMM:   2    -0.178599525645E+04   -0.11083E-01   -0.11189E-01  1568   0.338E-01    0.911E-02
RMM:   3    -0.178599560765E+04   -0.35120E-03   -0.58361E-03  1798   0.568E-02    0.746E-02
RMM:   4    -0.178599554764E+04    0.60007E-04   -0.26228E-04  1037   0.143E-02
   65 T=  4232. E= -.16598553E+04 F= -.17859955E+04 E0= -.17859955E+04  EK= 0.13239E+03 SP= -.64E+01 SK= 0.13E+00
       N       E                     dE             d eps       ncg     rms          rms(c)
DAV:   1    -0.178502142473E+04    0.97418E+00   -0.11137E-01  2808   0.331E+00    0.128E-01
RMM:   2    -0.178503277176E+04   -0.11347E-01   -0.11582E-01  1568   0.342E-01    0.899E-02
RMM:   3    -0.178503313330E+04   -0.36155E-03   -0.59558E-03  1793   0.574E-02    0.697E-02
RMM:   4    -0.178503308161E+04    0.51691E-04   -0.28773E-04  1061   0.151E-02
   66 T=  4229. E= -.16598546E+04 F= -.17850331E+04 E0= -.17850331E+04  EK= 0.13228E+03 SP= -.72E+01 SK= 0.83E-01
       N       E                     dE             d eps       ncg     rms          rms(c)
DAV:   1    -0.178403125925E+04    0.10019E+01   -0.11756E-01  2792   0.330E+00    0.135E-01
RMM:   2    -0.178404339373E+04   -0.12134E-01   -0.12403E-01  1568   0.351E-01    0.936E-02
RMM:   3    -0.178404373752E+04   -0.34379E-03   -0.62036E-03  1814   0.589E-02    0.712E-02
RMM:   4    -0.178404367981E+04    0.57709E-04   -0.28134E-04  1064   0.148E-02
   67 T=  4219. E= -.16598521E+04 F= -.17840437E+04 E0= -.17840437E+04  EK= 0.13196E+03 SP= -.78E+01 SK= 0.48E-01
       N       E                     dE             d eps       ncg     rms          rms(c)
DAV:   1    -0.178304427227E+04    0.99947E+00   -0.13419E-01  2760   0.329E+00    0.119E-01
RMM:   2    -0.178305668301E+04   -0.12411E-01   -0.12530E-01  1568   0.355E-01    0.106E-01
RMM:   3    -0.178305697913E+04   -0.29611E-03   -0.59313E-03  1797   0.585E-02    0.855E-02
RMM:   4    -0.178305691007E+04    0.69053E-04   -0.29114E-04  1064   0.151E-02
   68 T=  4203. E= -.16598488E+04 F= -.17830569E+04 E0= -.17830569E+04  EK= 0.13146E+03 SP= -.83E+01 SK= 0.24E-01
       N       E                     dE             d eps       ncg     rms          rms(c)
DAV:   1    -0.178209274726E+04    0.96423E+00   -0.13429E-01  2784   0.326E+00    0.131E-01
RMM:   2    -0.178210495841E+04   -0.12211E-01   -0.12427E-01  1568   0.354E-01    0.102E-01
RMM:   3    -0.178210528863E+04   -0.33022E-03   -0.60233E-03  1802   0.587E-02    0.798E-02
RMM:   4    -0.178210522960E+04    0.59031E-04   -0.31382E-04  1074   0.158E-02
   69 T=  4182. E= -.16598447E+04 F= -.17821052E+04 E0= -.17821052E+04  EK= 0.13083E+03 SP= -.86E+01 SK= 0.88E-02
       N       E                     dE             d eps       ncg     rms          rms(c)
DAV:   1    -0.178121133821E+04    0.89395E+00   -0.13655E-01  2784   0.325E+00    0.145E-01
RMM:   2    -0.178122377049E+04   -0.12432E-01   -0.12753E-01  1568   0.357E-01    0.978E-02
RMM:   3    -0.178122410243E+04   -0.33194E-03   -0.62222E-03  1794   0.593E-02    0.740E-02
RMM:   4    -0.178122404073E+04    0.61702E-04   -0.29990E-04  1071   0.155E-02
   70 T=  4160. E= -.16598401E+04 F= -.17812240E+04 E0= -.17812240E+04  EK= 0.13013E+03 SP= -.87E+01 SK= 0.17E-02
       N       E                     dE             d eps       ncg     rms          rms(c)
DAV:   1    -0.178043404709E+04    0.79006E+00   -0.15000E-01  2784   0.323E+00    0.122E-01
RMM:   2    -0.178044688400E+04   -0.12837E-01   -0.12977E-01  1568   0.363E-01    0.105E-01
RMM:   3    -0.178044717438E+04   -0.29037E-03   -0.60271E-03  1800   0.596E-02    0.848E-02
RMM:   4    -0.178044710179E+04    0.72588E-04   -0.30337E-04  1074   0.155E-02
   71 T=  4137. E= -.16598357E+04 F= -.17804471E+04 E0= -.17804471E+04  EK= 0.12939E+03 SP= -.88E+01 SK= 0.28E-04
       N       E                     dE             d eps       ncg     rms          rms(c)
DAV:   1    -0.177979164967E+04    0.65552E+00   -0.15426E-01  2784   0.321E+00    0.131E-01
RMM:   2    -0.177980444464E+04   -0.12795E-01   -0.13006E-01  1568   0.363E-01    0.107E-01
RMM:   3    -0.177980473849E+04   -0.29385E-03   -0.59749E-03  1804   0.595E-02    0.841E-02
RMM:   4    -0.177980467142E+04    0.67069E-04   -0.31634E-04  1080   0.161E-02
   72 T=  4114. E= -.16598319E+04 F= -.17798047E+04 E0= -.17798047E+04  EK= 0.12869E+03 SP= -.87E+01 SK= 0.19E-02
       N       E                     dE             d eps       ncg     rms          rms(c)
DAV:   1    -0.177931015980E+04    0.49458E+00   -0.10466E-01  2816   0.319E+00    0.133E-01
RMM:   2    -0.177932189698E+04   -0.11737E-01   -0.12031E-01  1568   0.347E-01    0.990E-02
RMM:   3    -0.177932223801E+04   -0.34103E-03   -0.60465E-03  1800   0.580E-02    0.753E-02
RMM:   4    -0.177932217247E+04    0.65540E-04   -0.30487E-04  1076   0.158E-02
   73 T=  4094. E= -.16598289E+04 F= -.17793222E+04 E0= -.17793222E+04  EK= 0.12805E+03 SP= -.86E+01 SK= 0.58E-02
       N       E                     dE             d eps       ncg     rms          rms(c)
DAV:   1    -0.177900940800E+04    0.31283E+00   -0.94614E-02  2840   0.318E+00    0.122E-01
RMM:   2    -0.177902039301E+04   -0.10985E-01   -0.11189E-01  1568   0.337E-01    0.953E-02
RMM:   3    -0.177902071450E+04   -0.32148E-03   -0.57071E-03  1792   0.563E-02    0.735E-02
RMM:   4    -0.177902064789E+04    0.66613E-04   -0.27895E-04  1057   0.151E-02
   74 T=  4077. E= -.16598268E+04 F= -.17790206E+04 E0= -.17790204E+04  EK= 0.12752E+03 SP= -.83E+01 SK= 0.11E-01
       N       E                     dE             d eps       ncg     rms          rms(c)
DAV:   1    -0.177890465225E+04    0.11606E+00   -0.96699E-02  2800   0.317E+00    0.135E-01
RMM:   2    -0.177891521424E+04   -0.10562E-01   -0.10793E-01  1568   0.336E-01    0.118E-01
RMM:   3    -0.177891541667E+04   -0.20244E-03   -0.54420E-03  1792   0.557E-02    0.758E-02
RMM:   4    -0.177891537824E+04    0.38430E-04   -0.20956E-04  1014   0.124E-02
   75 T=  4064. E= -.16598260E+04 F= -.17789154E+04 E0= -.17789146E+04  EK= 0.12713E+03 SP= -.81E+01 SK= 0.16E-01
       N       E                     dE             d eps       ncg     rms          rms(c)
DAV:   1    -0.177900401848E+04   -0.88602E-01   -0.10760E-01  2792   0.316E+00    0.137E-01
RMM:   2    -0.177901501403E+04   -0.10996E-01   -0.11081E-01  1568   0.340E-01    0.198E-01
RMM:   3    -0.177901505419E+04   -0.40161E-04   -0.57320E-03  1790   0.573E-02    0.963E-02
RMM:   4    -0.177901499188E+04    0.62306E-04   -0.23255E-04  1035   0.133E-02
   76 T=  4056. E= -.16598269E+04 F= -.17790150E+04 E0= -.17790137E+04  EK= 0.12689E+03 SP= -.77E+01 SK= 0.21E-01
       N       E                     dE             d eps       ncg     rms          rms(c)
DAV:   1    -0.177931098855E+04   -0.29593E+00   -0.94968E-02  2792   0.316E+00    0.112E-01
RMM:   2    -0.177932164541E+04   -0.10657E-01   -0.10842E-01  1568   0.336E-01    0.110E-01
RMM:   3    -0.177932193122E+04   -0.28581E-03   -0.54217E-03  1790   0.553E-02    0.875E-02
RMM:   4    -0.177932189215E+04    0.39070E-04   -0.24772E-04  1026   0.130E-02
   77 T=  4054. E= -.16598290E+04 F= -.17793219E+04 E0= -.17793196E+04  EK= 0.12681E+03 SP= -.73E+01 SK= 0.26E-01
       N       E                     dE             d eps       ncg     rms          rms(c)
DAV:   1    -0.177982255163E+04   -0.50062E+00   -0.98287E-02  2776   0.315E+00    0.151E-01
RMM:   2    -0.177983386925E+04   -0.11318E-01   -0.10964E-01  1568   0.337E-01    0.368E-01
RMM:   3    -0.177983346129E+04    0.40796E-03   -0.64141E-03  1781   0.593E-02    0.143E-01
RMM:   4    -0.177983339617E+04    0.65127E-04   -0.31758E-04  1067   0.177E-02
   78 T=  4056. E= -.16598326E+04 F= -.17798334E+04 E0= -.17798314E+04  EK= 0.12689E+03 SP= -.69E+01 SK= 0.32E-01
       N       E                     dE             d eps       ncg     rms          rms(c)
DAV:   1    -0.178052944362E+04   -0.69598E+00   -0.98062E-02  2824   0.317E+00    0.179E-01
RMM:   2    -0.178054123997E+04   -0.11796E-01   -0.10704E-01  1569   0.332E-01    0.292E-01
RMM:   3    -0.178054010297E+04    0.11370E-02   -0.67429E-03  1788   0.595E-02    0.991E-02
RMM:   4    -0.178054007685E+04    0.26117E-04   -0.31500E-04  1049   0.144E-02
   79 T=  4064. E= -.16598375E+04 F= -.17805401E+04 E0= -.17805378E+04  EK= 0.12712E+03 SP= -.65E+01 SK= 0.39E-01
       N       E                     dE             d eps       ncg     rms          rms(c)
DAV:   1    -0.178141379704E+04   -0.87369E+00   -0.94098E-02  2864   0.318E+00    0.187E-01
RMM:   2    -0.178142695129E+04   -0.13154E-01   -0.11314E-01  1568   0.341E-01    0.807E-01
RMM:   3    -0.178142428901E+04    0.26623E-02   -0.77448E-03  1764   0.667E-02    0.195E-01
RMM:   4    -0.178142473122E+04   -0.44221E-03   -0.52660E-04  1219   0.271E-02    0.127E-01
RMM:   5    -0.178142457453E+04    0.15668E-03   -0.29586E-04   988   0.156E-02    0.570E-02
RMM:   6    -0.178142456576E+04    0.87726E-05   -0.18937E-04   925   0.129E-02
   80 T=  4075. E= -.16598428E+04 F= -.17814246E+04 E0= -.17814216E+04  EK= 0.12748E+03 SP= -.59E+01 SK= 0.47E-01
       N       E                     dE             d eps       ncg     rms          rms(c)
DAV:   1    -0.178244881839E+04   -0.10242E+01   -0.10663E-01  2784   0.318E+00    0.254E-01
RMM:   2    -0.178246145221E+04   -0.12634E-01   -0.12138E-01  1568   0.350E-01    0.300E-01
RMM:   3    -0.178246024145E+04    0.12108E-02   -0.77249E-03  1784   0.636E-02    0.874E-02
RMM:   4    -0.178246021070E+04    0.30751E-04   -0.46288E-04  1172   0.193E-02
   81 T=  4090. E= -.16598490E+04 F= -.17824602E+04 E0= -.17824579E+04  EK= 0.12793E+03 SP= -.54E+01 SK= 0.59E-01
       N       E                     dE             d eps       ncg     rms          rms(c)
DAV:   1    -0.178359917237E+04   -0.11389E+01   -0.95023E-02  2832   0.320E+00    0.102E-01
RMM:   2    -0.178360980633E+04   -0.10634E-01   -0.10577E-01  1568   0.331E-01    0.140E-01
RMM:   3    -0.178361002424E+04   -0.21791E-03   -0.55396E-03  1790   0.558E-02    0.105E-01
RMM:   4    -0.178360997516E+04    0.49080E-04   -0.22185E-04  1021   0.125E-02
   82 T=  4105. E= -.16598572E+04 F= -.17836100E+04 E0= -.17836075E+04  EK= 0.12841E+03 SP= -.47E+01 SK= 0.75E-01
       N       E                     dE             d eps       ncg     rms          rms(c)
DAV:   1    -0.178481713025E+04   -0.12071E+01   -0.80587E-02  2848   0.320E+00    0.133E-01
RMM:   2    -0.178482716145E+04   -0.10031E-01   -0.10248E-01  1568   0.325E-01    0.135E-01
RMM:   3    -0.178482742300E+04   -0.26155E-03   -0.53500E-03  1803   0.543E-02    0.110E-01
RMM:   4    -0.178482739186E+04    0.31140E-04   -0.30406E-04  1036   0.140E-02
   83 T=  4120. E= -.16598664E+04 F= -.17848274E+04 E0= -.17848246E+04  EK= 0.12888E+03 SP= -.40E+01 SK= 0.95E-01
       N       E                     dE             d eps       ncg     rms          rms(c)
DAV:   1    -0.178604952660E+04   -0.12221E+01   -0.83329E-02  2832   0.321E+00    0.194E-01
RMM:   2    -0.178605961752E+04   -0.10091E-01   -0.10769E-01  1568   0.333E-01    0.116E-01
RMM:   3    -0.178605978781E+04   -0.17029E-03   -0.54419E-03  1793   0.564E-02    0.806E-02
RMM:   4    -0.178605973523E+04    0.52585E-04   -0.40079E-04  1089   0.156E-02
   84 T=  4132. E= -.16598746E+04 F= -.17860597E+04 E0= -.17860578E+04  EK= 0.12927E+03 SP= -.32E+01 SK= 0.12E+00
       N       E                     dE             d eps       ncg     rms          rms(c)
DAV:   1    -0.178724090672E+04   -0.11811E+01   -0.81643E-02  2864   0.325E+00    0.135E-01
RMM:   2    -0.178725193194E+04   -0.11025E-01   -0.11256E-01  1568   0.340E-01    0.147E-01
RMM:   3    -0.178725199059E+04   -0.58654E-04   -0.52775E-03  1785   0.554E-02    0.114E-01
RMM:   4    -0.178725179224E+04    0.19836E-03   -0.68033E-04  1364   0.230E-02    0.609E-02
RMM:   5    -0.178725174953E+04    0.42703E-04   -0.23985E-04   973   0.143E-02
   85 T=  4140. E= -.16598814E+04 F= -.17872517E+04 E0= -.17872510E+04  EK= 0.12950E+03 SP= -.23E+01 SK= 0.15E+00
       N       E                     dE             d eps       ncg     rms          rms(c)
DAV:   1    -0.178833878902E+04   -0.10870E+01   -0.88133E-02  2864   0.324E+00    0.146E-01
RMM:   2    -0.178834889302E+04   -0.10104E-01   -0.10522E-01  1568   0.332E-01    0.115E-01
RMM:   3    -0.178834908136E+04   -0.18834E-03   -0.52283E-03  1778   0.555E-02    0.797E-02
RMM:   4    -0.178834902007E+04    0.61284E-04   -0.31176E-04  1076   0.150E-02
   86 T=  4141. E= -.16598866E+04 F= -.17883490E+04 E0= -.17883489E+04  EK= 0.12954E+03 SP= -.13E+01 SK= 0.19E+00
       N       E                     dE             d eps       ncg     rms          rms(c)
DAV:   1    -0.178929528861E+04   -0.94621E+00   -0.93665E-02  2848   0.324E+00    0.122E-01
RMM:   2    -0.178930543696E+04   -0.10148E-01   -0.10455E-01  1568   0.330E-01    0.105E-01
RMM:   3    -0.178930569981E+04   -0.26285E-03   -0.52888E-03  1795   0.551E-02    0.843E-02
RMM:   4    -0.178930561041E+04    0.89401E-04   -0.47364E-04  1231   0.194E-02
   87 T=  4134. E= -.16598900E+04 F= -.17893056E+04 E0= -.17893056E+04  EK= 0.12932E+03 SP= -.13E+00 SK= 0.23E+00
       N       E                     dE             d eps       ncg     rms          rms(c)
DAV:   1    -0.179007710534E+04   -0.77141E+00   -0.90523E-02  2816   0.326E+00    0.155E-01
RMM:   2    -0.179008795151E+04   -0.10846E-01   -0.11354E-01  1568   0.338E-01    0.112E-01
RMM:   3    -0.179008815527E+04   -0.20376E-03   -0.54035E-03  1791   0.563E-02    0.789E-02
RMM:   4    -0.179008806723E+04    0.88041E-04   -0.46670E-04  1203   0.193E-02
   88 T=  4118. E= -.16598906E+04 F= -.17900881E+04 E0= -.17900881E+04  EK= 0.12883E+03 SP= 0.11E+01 SK= 0.27E+00
       N       E                     dE             d eps       ncg     rms          rms(c)
DAV:   1    -0.179066777631E+04   -0.57962E+00   -0.85719E-02  2832   0.325E+00    0.108E-01
RMM:   2    -0.179067826314E+04   -0.10487E-01   -0.10674E-01  1568   0.329E-01    0.108E-01
RMM:   3    -0.179067851629E+04   -0.25315E-03   -0.53259E-03  1784   0.548E-02    0.863E-02
RMM:   4    -0.179067840803E+04    0.10827E-03   -0.42256E-04  1160   0.183E-02    0.497E-02
RMM:   5    -0.179067838152E+04    0.26511E-04   -0.16378E-04   924   0.120E-02
   89 T=  4094. E= -.16598882E+04 F= -.17906784E+04 E0= -.17906784E+04  EK= 0.12806E+03 SP= 0.24E+01 SK= 0.30E+00
       N       E                     dE             d eps       ncg     rms          rms(c)
DAV:   1    -0.179106536344E+04   -0.38696E+00   -0.83396E-02  2816   0.324E+00    0.160E-01
RMM:   2    -0.179107530720E+04   -0.99438E-02   -0.10425E-01  1568   0.326E-01    0.890E-02
RMM:   3    -0.179107557309E+04   -0.26589E-03   -0.51401E-03  1781   0.550E-02    0.581E-02
RMM:   4    -0.179107552555E+04    0.47536E-04   -0.36412E-04  1102   0.169E-02
   90 T=  4061. E= -.16598831E+04 F= -.17910755E+04 E0= -.17910755E+04  EK= 0.12703E+03 SP= 0.38E+01 SK= 0.33E+00
       N       E                     dE             d eps       ncg     rms          rms(c)
DAV:   1    -0.179128449299E+04   -0.20892E+00   -0.80312E-02  2864   0.323E+00    0.914E-02
RMM:   2    -0.179129418477E+04   -0.96918E-02   -0.97897E-02  1568   0.318E-01    0.979E-02
RMM:   3    -0.179129447224E+04   -0.28747E-03   -0.50604E-03  1778   0.532E-02    0.814E-02
RMM:   4    -0.179129440577E+04    0.66471E-04   -0.24348E-04  1029   0.137E-02
   91 T=  4021. E= -.16598765E+04 F= -.17912944E+04 E0= -.17912944E+04  EK= 0.12580E+03 SP= 0.53E+01 SK= 0.34E+00
       N       E                     dE             d eps       ncg     rms          rms(c)
DAV:   1    -0.179135345583E+04   -0.58984E-01   -0.78769E-02  2848   0.321E+00    0.123E-01
RMM:   2    -0.179136308264E+04   -0.96268E-02   -0.98668E-02  1568   0.313E-01    0.912E-02
RMM:   3    -0.179136341387E+04   -0.33123E-03   -0.52669E-03  1790   0.541E-02    0.677E-02
RMM:   4    -0.179136337203E+04    0.41843E-04   -0.33214E-04  1080   0.163E-02
   92 T=  3977. E= -.16598684E+04 F= -.17913634E+04 E0= -.17913634E+04  EK= 0.12441E+03 SP= 0.67E+01 SK= 0.34E+00
       N       E                     dE             d eps       ncg     rms          rms(c)
DAV:   1    -0.179131050826E+04    0.52906E-01   -0.86059E-02  2872   0.320E+00    0.140E-01
RMM:   2    -0.179132060546E+04   -0.10097E-01   -0.10482E-01  1568   0.327E-01    0.943E-02
RMM:   3    -0.179132084263E+04   -0.23717E-03   -0.50788E-03  1785   0.542E-02    0.674E-02
RMM:   4    -0.179132077518E+04    0.67450E-04   -0.28850E-04  1061   0.151E-02
   93 T=  3930. E= -.16598587E+04 F= -.17913208E+04 E0= -.17913208E+04  EK= 0.12295E+03 SP= 0.82E+01 SK= 0.33E+00
       N       E                     dE             d eps       ncg     rms          rms(c)
DAV:   1    -0.179120330945E+04    0.11753E+00   -0.97605E-02  2856   0.318E+00    0.887E-02
RMM:   2    -0.179121290533E+04   -0.95959E-02   -0.96477E-02  1568   0.316E-01    0.962E-02
RMM:   3    -0.179121316943E+04   -0.26410E-03   -0.48718E-03  1793   0.527E-02    0.817E-02
RMM:   4    -0.179121309448E+04    0.74951E-04   -0.25909E-04  1030   0.146E-02
   94 T=  3884. E= -.16598492E+04 F= -.17912131E+04 E0= -.17912131E+04  EK= 0.12149E+03 SP= 0.96E+01 SK= 0.29E+00
       N       E                     dE             d eps       ncg     rms          rms(c)
DAV:   1    -0.179108162390E+04    0.13155E+00   -0.10557E-01  2832   0.315E+00    0.132E-01
RMM:   2    -0.179109153640E+04   -0.99125E-02   -0.10237E-01  1568   0.321E-01    0.956E-02
RMM:   3    -0.179109179866E+04   -0.26226E-03   -0.50453E-03  1796   0.539E-02    0.719E-02
RMM:   4    -0.179109173771E+04    0.60948E-04   -0.34469E-04  1091   0.167E-02
   95 T=  3840. E= -.16598400E+04 F= -.17910917E+04 E0= -.17910917E+04  EK= 0.12012E+03 SP= 0.11E+02 SK= 0.25E+00
       N       E                     dE             d eps       ncg     rms          rms(c)
DAV:   1    -0.179099746396E+04    0.94335E-01   -0.10407E-01  2848   0.314E+00    0.132E-01
RMM:   2    -0.179100770356E+04   -0.10240E-01   -0.10554E-01  1568   0.322E-01    0.868E-02
RMM:   3    -0.179100798117E+04   -0.27761E-03   -0.52451E-03  1792   0.548E-02    0.646E-02
RMM:   4    -0.179100792378E+04    0.57393E-04   -0.28417E-04  1055   0.151E-02
   96 T=  3802. E= -.16598317E+04 F= -.17910079E+04 E0= -.17910079E+04  EK= 0.11892E+03 SP= 0.12E+02 SK= 0.20E+00
       N       E                     dE             d eps       ncg     rms          rms(c)
DAV:   1    -0.179099740307E+04    0.10578E-01   -0.11812E-01  2856   0.313E+00    0.105E-01
RMM:   2    -0.179100766086E+04   -0.10258E-01   -0.10379E-01  1568   0.321E-01    0.966E-02
RMM:   3    -0.179100791749E+04   -0.25664E-03   -0.51190E-03  1795   0.546E-02    0.796E-02
RMM:   4    -0.179100784275E+04    0.74744E-04   -0.29764E-04  1061   0.153E-02
   97 T=  3771. E= -.16598255E+04 F= -.17910078E+04 E0= -.17910078E+04  EK= 0.11795E+03 SP= 0.13E+02 SK= 0.14E+00
       N       E                     dE             d eps       ncg     rms          rms(c)
DAV:   1    -0.179111773513E+04   -0.10982E+00   -0.13403E-01  2824   0.311E+00    0.117E-01
RMM:   2    -0.179112812546E+04   -0.10390E-01   -0.10582E-01  1568   0.322E-01    0.932E-02
RMM:   3    -0.179112839795E+04   -0.27249E-03   -0.50739E-03  1785   0.550E-02    0.754E-02
RMM:   4    -0.179112833932E+04    0.58632E-04   -0.31943E-04  1077   0.161E-02
   98 T=  3749. E= -.16598220E+04 F= -.17911283E+04 E0= -.17911283E+04  EK= 0.11728E+03 SP= 0.14E+02 SK= 0.91E-01
       N       E                     dE             d eps       ncg     rms          rms(c)
DAV:   1    -0.179138322651E+04   -0.25483E+00   -0.11158E-01  2824   0.310E+00    0.134E-01
RMM:   2    -0.179139383334E+04   -0.10607E-01   -0.10938E-01  1568   0.320E-01    0.894E-02
RMM:   3    -0.179139413918E+04   -0.30584E-03   -0.54708E-03  1801   0.561E-02    0.681E-02
RMM:   4    -0.179139407873E+04    0.60448E-04   -0.32361E-04  1089   0.160E-02
   99 T=  3738. E= -.16598210E+04 F= -.17913941E+04 E0= -.17913941E+04  EK= 0.11693E+03 SP= 0.15E+02 SK= 0.50E-01
       N       E                     dE             d eps       ncg     rms          rms(c)
DAV:   1    -0.179180665514E+04   -0.41252E+00   -0.10457E-01  2824   0.310E+00    0.106E-01
RMM:   2    -0.179181670154E+04   -0.10046E-01   -0.10161E-01  1568   0.310E-01    0.866E-02
RMM:   3    -0.179181699057E+04   -0.28904E-03   -0.51093E-03  1794   0.542E-02    0.700E-02
RMM:   4    -0.179181693381E+04    0.56765E-04   -0.25504E-04  1035   0.143E-02
  100 T=  3738. E= -.16598230E+04 F= -.17918169E+04 E0= -.17918169E+04  EK= 0.11693E+03 SP= 0.15E+02 SK= 0.20E-01
       N       E                     dE             d eps       ncg     rms          rms(c)
DAV:   1    -0.179238470799E+04   -0.56772E+00   -0.11306E-01  2832   0.310E+00    0.116E-01
RMM:   2    -0.179239455819E+04   -0.98502E-02   -0.10039E-01  1568   0.310E-01    0.866E-02
RMM:   3    -0.179239484518E+04   -0.28698E-03   -0.50627E-03  1795   0.540E-02    0.689E-02
RMM:   4    -0.179239479048E+04    0.54700E-04   -0.28260E-04  1051   0.151E-02
  101 T=  3749. E= -.16598275E+04 F= -.17923948E+04 E0= -.17923948E+04  EK= 0.11727E+03 SP= 0.15E+02 SK= 0.38E-02
       N       E                     dE             d eps       ncg     rms          rms(c)
DAV:   1    -0.179310334632E+04   -0.70850E+00   -0.11112E-01  2840   0.311E+00    0.116E-01
RMM:   2    -0.179311317462E+04   -0.98283E-02   -0.10038E-01  1568   0.310E-01    0.902E-02
RMM:   3    -0.179311345359E+04   -0.27897E-03   -0.49706E-03  1799   0.537E-02    0.715E-02
RMM:   4    -0.179311339618E+04    0.57410E-04   -0.27141E-04  1042   0.149E-02
  102 T=  3770. E= -.16598346E+04 F= -.17931134E+04 E0= -.17931134E+04  EK= 0.11793E+03 SP= 0.15E+02 SK= 0.17E-03
       N       E                     dE             d eps       ncg     rms          rms(c)
DAV:   1    -0.179393931785E+04   -0.82586E+00   -0.10021E-01  2808   0.312E+00    0.114E-01
RMM:   2    -0.179394896171E+04   -0.96439E-02   -0.98213E-02  1568   0.306E-01    0.882E-02
RMM:   3    -0.179394924645E+04   -0.28474E-03   -0.49294E-03  1789   0.533E-02    0.701E-02
RMM:   4    -0.179394919007E+04    0.56380E-04   -0.29096E-04  1058   0.153E-02
  103 T=  3800. E= -.16598438E+04 F= -.17939492E+04 E0= -.17939492E+04  EK= 0.11887E+03 SP= 0.15E+02 SK= 0.63E-02
       N       E                     dE             d eps       ncg     rms          rms(c)
DAV:   1    -0.179486315609E+04   -0.91391E+00   -0.10516E-01  2792   0.314E+00    0.115E-01
RMM:   2    -0.179487287364E+04   -0.97176E-02   -0.98995E-02  1568   0.309E-01    0.915E-02
RMM:   3    -0.179487314731E+04   -0.27367E-03   -0.49412E-03  1777   0.534E-02    0.720E-02
RMM:   4    -0.179487308900E+04    0.58313E-04   -0.28479E-04  1059   0.154E-02
  104 T=  3838. E= -.16598546E+04 F= -.17948731E+04 E0= -.17948731E+04  EK= 0.12005E+03 SP= 0.15E+02 SK= 0.18E-01
       N       E                     dE             d eps       ncg     rms          rms(c)
DAV:   1    -0.179584246624E+04   -0.96932E+00   -0.12329E-01  2792   0.315E+00    0.121E-01
RMM:   2    -0.179585270734E+04   -0.10241E-01   -0.10442E-01  1568   0.318E-01    0.904E-02
RMM:   3    -0.179585297742E+04   -0.27008E-03   -0.50216E-03  1790   0.542E-02    0.706E-02
RMM:   4    -0.179585292248E+04    0.54934E-04   -0.29812E-04  1074   0.154E-02
  105 T=  3881. E= -.16598663E+04 F= -.17958529E+04 E0= -.17958529E+04  EK= 0.12140E+03 SP= 0.15E+02 SK= 0.32E-01
       N       E                     dE             d eps       ncg     rms          rms(c)
DAV:   1    -0.179684585159E+04   -0.99287E+00   -0.12751E-01  2800   0.317E+00    0.112E-01
RMM:   2    -0.179685645524E+04   -0.10604E-01   -0.10773E-01  1568   0.322E-01    0.940E-02
RMM:   3    -0.179685673717E+04   -0.28193E-03   -0.51799E-03  1789   0.547E-02    0.752E-02
RMM:   4    -0.179685667616E+04    0.61005E-04   -0.27117E-04  1045   0.149E-02
  106 T=  3928. E= -.16598787E+04 F= -.17968567E+04 E0= -.17968567E+04  EK= 0.12287E+03 SP= 0.14E+02 SK= 0.44E-01
       N       E                     dE             d eps       ncg     rms          rms(c)
DAV:   1    -0.179784367784E+04   -0.98694E+00   -0.10601E-01  2816   0.319E+00    0.113E-01
RMM:   2    -0.179785413528E+04   -0.10457E-01   -0.10629E-01  1568   0.317E-01    0.902E-02
RMM:   3    -0.179785446444E+04   -0.32917E-03   -0.54314E-03  1784   0.553E-02    0.717E-02
RMM:   4    -0.179785440761E+04    0.56830E-04   -0.30496E-04  1081   0.156E-02
  107 T=  3977. E= -.16598912E+04 F= -.17978544E+04 E0= -.17978544E+04  EK= 0.12440E+03 SP= 0.14E+02 SK= 0.50E-01
       N       E                     dE             d eps       ncg     rms          rms(c)
DAV:   1    -0.179880809885E+04   -0.95363E+00   -0.10959E-01  2808   0.321E+00    0.127E-01
RMM:   2    -0.179881908771E+04   -0.10989E-01   -0.11234E-01  1568   0.325E-01    0.909E-02
RMM:   3    -0.179881941065E+04   -0.32294E-03   -0.56199E-03  1793   0.566E-02    0.695E-02
RMM:   4    -0.179881935437E+04    0.56277E-04   -0.30166E-04  1084   0.155E-02
  108 T=  4025. E= -.16599034E+04 F= -.17988194E+04 E0= -.17988194E+04  EK= 0.12592E+03 SP= 0.13E+02 SK= 0.50E-01
       N       E                     dE             d eps       ncg     rms          rms(c)
DAV:   1    -0.179971727322E+04   -0.89786E+00   -0.13402E-01  2816   0.323E+00    0.118E-01
RMM:   2    -0.179972873671E+04   -0.11463E-01   -0.11645E-01  1568   0.332E-01    0.914E-02
RMM:   3    -0.179972907110E+04   -0.33440E-03   -0.58166E-03  1794   0.576E-02    0.725E-02
RMM:   4    -0.179972901282E+04    0.58285E-04   -0.28831E-04  1069   0.151E-02
  109 T=  4072. E= -.16599155E+04 F= -.17997290E+04 E0= -.17997290E+04  EK= 0.12737E+03 SP= 0.12E+02 SK= 0.44E-01
       N       E                     dE             d eps       ncg     rms          rms(c)
DAV:   1    -0.180054991361E+04   -0.82084E+00   -0.16022E-01  2776   0.325E+00    0.120E-01
RMM:   2    -0.180056199228E+04   -0.12079E-01   -0.12263E-01  1568   0.343E-01    0.976E-02
RMM:   3    -0.180056231352E+04   -0.32124E-03   -0.59072E-03  1801   0.589E-02    0.791E-02
RMM:   4    -0.180056224894E+04    0.64573E-04   -0.29673E-04  1076   0.154E-02
  110 T=  4114. E= -.16599263E+04 F= -.18005622E+04 E0= -.18005622E+04  EK= 0.12869E+03 SP= 0.12E+02 SK= 0.32E-01
       N       E                     dE             d eps       ncg     rms          rms(c)
DAV:   1    -0.180128877956E+04   -0.72647E+00   -0.12505E-01  2800   0.326E+00    0.119E-01
RMM:   2    -0.180130050365E+04   -0.11724E-01   -0.11927E-01  1568   0.336E-01    0.935E-02
RMM:   3    -0.180130086074E+04   -0.35709E-03   -0.60210E-03  1795   0.585E-02    0.752E-02
RMM:   4    -0.180130080113E+04    0.59614E-04   -0.30113E-04  1075   0.154E-02
  111 T=  4151. E= -.16599360E+04 F= -.18013008E+04 E0= -.18013008E+04  EK= 0.12984E+03 SP= 0.12E+02 SK= 0.19E-01
       N       E                     dE             d eps       ncg     rms          rms(c)
DAV:   1    -0.180191707133E+04   -0.61621E+00   -0.11301E-01  2792   0.327E+00    0.122E-01
RMM:   2    -0.180192846574E+04   -0.11394E-01   -0.11606E-01  1568   0.330E-01    0.889E-02
RMM:   3    -0.180192882532E+04   -0.35958E-03   -0.59383E-03  1796   0.576E-02    0.694E-02
RMM:   4    -0.180192877003E+04    0.55298E-04   -0.28373E-04  1061   0.150E-02
  112 T=  4180. E= -.16599447E+04 F= -.18019288E+04 E0= -.18019288E+04  EK= 0.13076E+03 SP= 0.11E+02 SK= 0.76E-02
       N       E                     dE             d eps       ncg     rms          rms(c)
DAV:   1    -0.180242012958E+04   -0.49130E+00   -0.13665E-01  2784   0.329E+00    0.127E-01
RMM:   2    -0.180243147569E+04   -0.11346E-01   -0.11557E-01  1568   0.335E-01    0.897E-02
RMM:   3    -0.180243179357E+04   -0.31788E-03   -0.57228E-03  1788   0.571E-02    0.702E-02
RMM:   4    -0.180243173573E+04    0.57831E-04   -0.28174E-04  1066   0.150E-02
  113 T=  4201. E= -.16599512E+04 F= -.18024317E+04 E0= -.18024317E+04  EK= 0.13141E+03 SP= 0.11E+02 SK= 0.80E-03
       N       E                     dE             d eps       ncg     rms          rms(c)
DAV:   1    -0.180278692748E+04   -0.35513E+00   -0.13594E-01  2800   0.329E+00    0.121E-01
RMM:   2    -0.180279847654E+04   -0.11549E-01   -0.11737E-01  1568   0.338E-01    0.939E-02
RMM:   3    -0.180279879922E+04   -0.32267E-03   -0.57733E-03  1802   0.576E-02    0.753E-02
RMM:   4    -0.180279873974E+04    0.59480E-04   -0.26976E-04  1052   0.146E-02
  114 T=  4212. E= -.16599556E+04 F= -.18027987E+04 E0= -.18027987E+04  EK= 0.13176E+03 SP= 0.11E+02 SK= 0.13E-02
       N       E                     dE             d eps       ncg     rms          rms(c)
DAV:   1    -0.180300980308E+04   -0.21100E+00   -0.13277E-01  2800   0.329E+00    0.118E-01
RMM:   2    -0.180302172342E+04   -0.11920E-01   -0.12101E-01  1568   0.339E-01    0.966E-02
RMM:   3    -0.180302207274E+04   -0.34932E-03   -0.60058E-03  1804   0.583E-02    0.780E-02
RMM:   4    -0.180302201281E+04    0.59931E-04   -0.29059E-04  1070   0.152E-02
  115 T=  4213. E= -.16599579E+04 F= -.18030220E+04 E0= -.18030220E+04  EK= 0.13180E+03 SP= 0.11E+02 SK= 0.10E-01
       N       E                     dE             d eps       ncg     rms          rms(c)
DAV:   1    -0.180308726188E+04   -0.65189E-01   -0.14201E-01  2808   0.329E+00    0.131E-01
RMM:   2    -0.180309919632E+04   -0.11934E-01   -0.12177E-01  1568   0.341E-01    0.992E-02
RMM:   3    -0.180309952169E+04   -0.32537E-03   -0.59976E-03  1794   0.581E-02    0.781E-02
RMM:   4    -0.180309945672E+04    0.64970E-04   -0.31211E-04  1085   0.158E-02
  116 T=  4205. E= -.16599583E+04 F= -.18030995E+04 E0= -.18030995E+04  EK= 0.13153E+03 SP= 0.12E+02 SK= 0.28E-01
       N       E                     dE             d eps       ncg     rms          rms(c)
DAV:   1    -0.180302266981E+04    0.76852E-01   -0.15478E-01  2800   0.328E+00    0.129E-01
RMM:   2    -0.180303474900E+04   -0.12079E-01   -0.12298E-01  1568   0.346E-01    0.101E-01
RMM:   3    -0.180303505080E+04   -0.30180E-03   -0.58889E-03  1791   0.584E-02    0.803E-02
RMM:   4    -0.180303498195E+04    0.68848E-04   -0.30811E-04  1089   0.157E-02
  117 T=  4186. E= -.16599565E+04 F= -.18030350E+04 E0= -.18030350E+04  EK= 0.13095E+03 SP= 0.12E+02 SK= 0.52E-01
       N       E                     dE             d eps       ncg     rms          rms(c)
DAV:   1    -0.180282668726E+04    0.20836E+00   -0.15143E-01  2784   0.327E+00    0.126E-01
RMM:   2    -0.180283903234E+04   -0.12345E-01   -0.12545E-01  1568   0.349E-01    0.101E-01
RMM:   3    -0.180283934422E+04   -0.31188E-03   -0.60423E-03  1787   0.589E-02    0.814E-02
RMM:   4    -0.180283927618E+04    0.68040E-04   -0.30279E-04  1075   0.155E-02
  118 T=  4159. E= -.16599527E+04 F= -.18028393E+04 E0= -.18028393E+04  EK= 0.13009E+03 SP= 0.13E+02 SK= 0.79E-01
       N       E                     dE             d eps       ncg     rms          rms(c)
DAV:   1    -0.180251712885E+04    0.32222E+00   -0.16011E-01  2792   0.325E+00    0.134E-01
RMM:   2    -0.180252971838E+04   -0.12590E-01   -0.12830E-01  1568   0.353E-01    0.104E-01
RMM:   3    -0.180252999951E+04   -0.28113E-03   -0.59500E-03  1790   0.591E-02    0.828E-02
RMM:   4    -0.180252993011E+04    0.69400E-04   -0.32042E-04  1088   0.160E-02
  119 T=  4124. E= -.16599472E+04 F= -.18025299E+04 E0= -.18025299E+04  EK= 0.12900E+03 SP= 0.13E+02 SK= 0.11E+00
       N       E                     dE             d eps       ncg     rms          rms(c)
DAV:   1    -0.180211699855E+04    0.41300E+00   -0.17709E-01  2768   0.323E+00    0.135E-01
RMM:   2    -0.180212992694E+04   -0.12928E-01   -0.13165E-01  1568   0.358E-01    0.107E-01
RMM:   3    -0.180213019566E+04   -0.26873E-03   -0.59265E-03  1790   0.595E-02    0.851E-02
RMM:   4    -0.180213012290E+04    0.72766E-04   -0.33011E-04  1092   0.163E-02
  120 T=  4083. E= -.16599402E+04 F= -.18021301E+04 E0= -.18021301E+04  EK= 0.12773E+03 SP= 0.14E+02 SK= 0.13E+00
       N       E                     dE             d eps       ncg     rms          rms(c)
DAV:   1    -0.180165514816E+04    0.47505E+00   -0.14276E-01  2824   0.321E+00    0.124E-01
RMM:   2    -0.180166737488E+04   -0.12227E-01   -0.12442E-01  1568   0.344E-01    0.981E-02
RMM:   3    -0.180166770553E+04   -0.33065E-03   -0.60129E-03  1790   0.584E-02    0.777E-02
RMM:   4    -0.180166764021E+04    0.65320E-04   -0.30628E-04  1072   0.157E-02
  121 T=  4039. E= -.16599327E+04 F= -.18016676E+04 E0= -.18016676E+04  EK= 0.12634E+03 SP= 0.15E+02 SK= 0.14E+00
       N       E                     dE             d eps       ncg     rms          rms(c)
DAV:   1    -0.180115912780E+04    0.50858E+00   -0.12906E-01  2776   0.319E+00    0.131E-01
RMM:   2    -0.180117059558E+04   -0.11468E-01   -0.11714E-01  1568   0.337E-01    0.936E-02
RMM:   3    -0.180117088072E+04   -0.28514E-03   -0.55677E-03  1785   0.565E-02    0.724E-02
RMM:   4    -0.180117081710E+04    0.63618E-04   -0.28903E-04  1060   0.153E-02
  122 T=  3993. E= -.16599244E+04 F= -.18011708E+04 E0= -.18011708E+04  EK= 0.12490E+03 SP= 0.16E+02 SK= 0.15E+00
       N       E                     dE             d eps       ncg     rms          rms(c)
DAV:   1    -0.180065643894E+04    0.51444E+00   -0.12983E-01  2752   0.317E+00    0.120E-01
RMM:   2    -0.180066756691E+04   -0.11128E-01   -0.11323E-01  1568   0.333E-01    0.949E-02
RMM:   3    -0.180066782494E+04   -0.25803E-03   -0.52448E-03  1779   0.554E-02    0.751E-02
RMM:   4    -0.180066775891E+04    0.66030E-04   -0.28066E-04  1052   0.150E-02
  123 T=  3947. E= -.16599168E+04 F= -.18006678E+04 E0= -.18006678E+04  EK= 0.12347E+03 SP= 0.17E+02 SK= 0.14E+00
       N       E                     dE             d eps       ncg     rms          rms(c)
DAV:   1    -0.180016924994E+04    0.49858E+00   -0.14451E-01  2784   0.314E+00    0.122E-01
RMM:   2    -0.180018070432E+04   -0.11454E-01   -0.11648E-01  1568   0.336E-01    0.976E-02
RMM:   3    -0.180018096065E+04   -0.25634E-03   -0.52934E-03  1778   0.558E-02    0.772E-02
RMM:   4    -0.180018089675E+04    0.63901E-04   -0.29267E-04  1069   0.154E-02
  124 T=  3903. E= -.16599097E+04 F= -.18001809E+04 E0= -.18001809E+04  EK= 0.12210E+03 SP= 0.18E+02 SK= 0.12E+00
       N       E                     dE             d eps       ncg     rms          rms(c)
DAV:   1    -0.179971615787E+04    0.46480E+00   -0.14255E-01  2768   0.312E+00    0.126E-01
RMM:   2    -0.179972755810E+04   -0.11400E-01   -0.11649E-01  1568   0.334E-01    0.974E-02
RMM:   3    -0.179972782981E+04   -0.27171E-03   -0.54654E-03  1776   0.562E-02    0.764E-02
RMM:   4    -0.179972776506E+04    0.64749E-04   -0.30287E-04  1074   0.157E-02
  125 T=  3863. E= -.16599035E+04 F= -.17997278E+04 E0= -.17997278E+04  EK= 0.12085E+03 SP= 0.19E+02 SK= 0.97E-01
       N       E                     dE             d eps       ncg     rms          rms(c)
DAV:   1    -0.179930924773E+04    0.41858E+00   -0.12518E-01  2784   0.311E+00    0.120E-01
RMM:   2    -0.179932022439E+04   -0.10977E-01   -0.11184E-01  1568   0.327E-01    0.938E-02
RMM:   3    -0.179932049705E+04   -0.27266E-03   -0.52876E-03  1776   0.553E-02    0.744E-02
RMM:   4    -0.179932043191E+04    0.65136E-04   -0.29027E-04  1065   0.152E-02
  126 T=  3828. E= -.16598988E+04 F= -.17993204E+04 E0= -.17993204E+04  EK= 0.11975E+03 SP= 0.20E+02 SK= 0.70E-01
       N       E                     dE             d eps       ncg     rms          rms(c)
DAV:   1    -0.179895405480E+04    0.36644E+00   -0.11015E-01  2792   0.309E+00    0.117E-01
RMM:   2    -0.179896477261E+04   -0.10718E-01   -0.10902E-01  1568   0.319E-01    0.885E-02
RMM:   3    -0.179896507241E+04   -0.29980E-03   -0.53302E-03  1773   0.547E-02    0.696E-02
RMM:   4    -0.179896501507E+04    0.57336E-04   -0.26470E-04  1045   0.145E-02
  127 T=  3799. E= -.16598953E+04 F= -.17989650E+04 E0= -.17989650E+04  EK= 0.11884E+03 SP= 0.20E+02 SK= 0.43E-01
       N       E                     dE             d eps       ncg     rms          rms(c)
DAV:   1    -0.179865198619E+04    0.31309E+00   -0.11885E-01  2800   0.309E+00    0.127E-01
RMM:   2    -0.179866268844E+04   -0.10702E-01   -0.10934E-01  1568   0.322E-01    0.900E-02
RMM:   3    -0.179866296046E+04   -0.27202E-03   -0.51721E-03  1769   0.546E-02    0.695E-02
RMM:   4    -0.179866290481E+04    0.55649E-04   -0.27241E-04  1050   0.148E-02
  128 T=  3776. E= -.16598935E+04 F= -.17986629E+04 E0= -.17986629E+04  EK= 0.11812E+03 SP= 0.21E+02 SK= 0.20E-01
       N       E                     dE             d eps       ncg     rms          rms(c)
DAV:   1    -0.179840001273E+04    0.26295E+00   -0.12346E-01  2824   0.308E+00    0.119E-01
RMM:   2    -0.179841060289E+04   -0.10590E-01   -0.10792E-01  1568   0.325E-01    0.952E-02
RMM:   3    -0.179841084540E+04   -0.24251E-03   -0.49725E-03  1774   0.543E-02    0.757E-02
RMM:   4    -0.179841078113E+04    0.64263E-04   -0.27258E-04  1058   0.149E-02
  129 T=  3760. E= -.16598928E+04 F= -.17984108E+04 E0= -.17984108E+04  EK= 0.11762E+03 SP= 0.21E+02 SK= 0.47E-02
       N       E                     dE             d eps       ncg     rms          rms(c)
DAV:   1    -0.179819432220E+04    0.21652E+00   -0.93112E-02  2752   0.308E+00    0.107E-01
RMM:   2    -0.179820408474E+04   -0.97625E-02   -0.99183E-02  1568   0.309E-01    0.914E-02
RMM:   3    -0.179820435174E+04   -0.26700E-03   -0.47945E-03  1761   0.522E-02    0.733E-02
RMM:   4    -0.179820429104E+04    0.60701E-04   -0.26256E-04  1044   0.147E-02
  130 T=  3751. E= -.16598937E+04 F= -.17982043E+04 E0= -.17982043E+04  EK= 0.11734E+03 SP= 0.21E+02 SK= 0.57E-04
       N       E                     dE             d eps       ncg     rms          rms(c)
DAV:   1    -0.179802765168E+04    0.17670E+00   -0.94481E-02  2776   0.308E+00    0.132E-01
RMM:   2    -0.179803724630E+04   -0.95946E-02   -0.98836E-02  1568   0.310E-01    0.806E-02
RMM:   3    -0.179803750853E+04   -0.26223E-03   -0.46836E-03  1775   0.521E-02    0.598E-02
RMM:   4    -0.179803746341E+04    0.45120E-04   -0.24253E-04  1028   0.142E-02
  131 T=  3749. E= -.16598954E+04 F= -.17980375E+04 E0= -.17980375E+04  EK= 0.11728E+03 SP= 0.21E+02 SK= 0.72E-02
       N       E                     dE             d eps       ncg     rms          rms(c)
DAV:   1    -0.179789244585E+04    0.14506E+00   -0.10733E-01  2824   0.309E+00    0.120E-01
RMM:   2    -0.179790297939E+04   -0.10534E-01   -0.10739E-01  1568   0.322E-01    0.913E-02
RMM:   3    -0.179790322724E+04   -0.24784E-03   -0.49590E-03  1782   0.542E-02    0.715E-02
RMM:   4    -0.179790316336E+04    0.63879E-04   -0.25801E-04  1044   0.144E-02
  132 T=  3754. E= -.16598988E+04 F= -.17979032E+04 E0= -.17979032E+04  EK= 0.11743E+03 SP= 0.21E+02 SK= 0.26E-01
       N       E                     dE             d eps       ncg     rms          rms(c)
DAV:   1    -0.179778141064E+04    0.12182E+00   -0.12989E-01  2784   0.309E+00    0.104E-01
RMM:   2    -0.179779234556E+04   -0.10935E-01   -0.11043E-01  1568   0.326E-01    0.984E-02
RMM:   3    -0.179779260478E+04   -0.25923E-03   -0.51032E-03  1779   0.550E-02    0.808E-02
RMM:   4    -0.179779253901E+04    0.65775E-04   -0.28286E-04  1071   0.150E-02
  133 T=  3765. E= -.16599034E+04 F= -.17977925E+04 E0= -.17977925E+04  EK= 0.11779E+03 SP= 0.20E+02 SK= 0.56E-01
       N       E                     dE             d eps       ncg     rms          rms(c)
DAV:   1    -0.179768755412E+04    0.10505E+00   -0.14157E-01  2792   0.310E+00    0.138E-01
RMM:   2    -0.179769876441E+04   -0.11210E-01   -0.11539E-01  1568   0.334E-01    0.970E-02
RMM:   3    -0.179769901235E+04   -0.24795E-03   -0.51483E-03  1774   0.559E-02    0.733E-02
RMM:   4    -0.179769895657E+04    0.55783E-04   -0.32120E-04  1102   0.163E-02
  134 T=  3783. E= -.16599089E+04 F= -.17976990E+04 E0= -.17976990E+04  EK= 0.11833E+03 SP= 0.19E+02 SK= 0.94E-01
       N       E                     dE             d eps       ncg     rms          rms(c)
DAV:   1    -0.179760397755E+04    0.95035E-01   -0.10297E-01  2808   0.311E+00    0.129E-01
RMM:   2    -0.179761486230E+04   -0.10885E-01   -0.11157E-01  1568   0.326E-01    0.913E-02
RMM:   3    -0.179761513680E+04   -0.27450E-03   -0.52014E-03  1765   0.552E-02    0.693E-02
RMM:   4    -0.179761507768E+04    0.59116E-04   -0.27763E-04  1062   0.151E-02
  135 T=  3806. E= -.16599151E+04 F= -.17976151E+04 E0= -.17976151E+04  EK= 0.11904E+03 SP= 0.19E+02 SK= 0.14E+00
       N       E                     dE             d eps       ncg     rms          rms(c)
DAV:   1    -0.179752554758E+04    0.89589E-01   -0.88883E-02  2824   0.311E+00    0.105E-01
RMM:   2    -0.179753550867E+04   -0.99611E-02   -0.10076E-01  1568   0.313E-01    0.895E-02
RMM:   3    -0.179753577786E+04   -0.26919E-03   -0.48700E-03  1775   0.530E-02    0.713E-02
RMM:   4    -0.179753571616E+04    0.61697E-04   -0.25873E-04  1041   0.146E-02
  136 T=  3833. E= -.16599221E+04 F= -.17975357E+04 E0= -.17975357E+04  EK= 0.11991E+03 SP= 0.18E+02 SK= 0.18E+00
       N       E                     dE             d eps       ncg     rms          rms(c)
DAV:   1    -0.179744860516E+04    0.87173E-01   -0.81872E-02  2824   0.311E+00    0.128E-01
RMM:   2    -0.179745843607E+04   -0.98309E-02   -0.10092E-01  1568   0.313E-01    0.877E-02
RMM:   3    -0.179745869986E+04   -0.26379E-03   -0.47824E-03  1773   0.526E-02    0.656E-02
RMM:   4    -0.179745865002E+04    0.49840E-04   -0.27248E-04  1054   0.151E-02
  137 T=  3865. E= -.16599297E+04 F= -.17974587E+04 E0= -.17974587E+04  EK= 0.12091E+03 SP= 0.16E+02 SK= 0.22E+00
       N       E                     dE             d eps       ncg     rms          rms(c)
DAV:   1    -0.179737409863E+04    0.84601E-01   -0.86775E-02  2792   0.313E+00    0.122E-01
RMM:   2    -0.179738398231E+04   -0.98837E-02   -0.10136E-01  1568   0.318E-01    0.916E-02
RMM:   3    -0.179738421968E+04   -0.23737E-03   -0.46594E-03  1774   0.526E-02    0.699E-02
RMM:   4    -0.179738416066E+04    0.59020E-04   -0.27082E-04  1056   0.150E-02
  138 T=  3901. E= -.16599376E+04 F= -.17973842E+04 E0= -.17973842E+04  EK= 0.12202E+03 SP= 0.15E+02 SK= 0.26E+00
       N       E                     dE             d eps       ncg     rms          rms(c)
DAV:   1    -0.179730469521E+04    0.79524E-01   -0.97513E-02  2824   0.314E+00    0.105E-01
[...]
RMM:   4    -0.178599313653E+04    0.46583E-04   -0.28802E-04  1066   0.148E-02
  965 T=  4272. E= -.16615269E+04 F= -.17859931E+04 E0= -.17859931E+04  EK= 0.13363E+03 SP= -.92E+01 SK= 0.16E-01
       N       E                     dE             d eps       ncg     rms          rms(c)
DAV:   1    -0.178601859057E+04   -0.25407E-01   -0.13855E-01  2816   0.325E+00    0.122E-01
RMM:   2    -0.178603139034E+04   -0.12800E-01   -0.12971E-01  1568   0.367E-01    0.925E-02
RMM:   3    -0.178603178191E+04   -0.39157E-03   -0.64895E-03  1809   0.605E-02    0.723E-02
RMM:   4    -0.178603172719E+04    0.54723E-04   -0.29462E-04  1073   0.148E-02
  966 T=  4259. E= -.16615265E+04 F= -.17860317E+04 E0= -.17860317E+04  EK= 0.13322E+03 SP= -.88E+01 SK= 0.43E-01
       N       E                     dE             d eps       ncg     rms          rms(c)
DAV:   1    -0.178606246420E+04   -0.30682E-01   -0.15823E-01  2792   0.325E+00    0.122E-01
RMM:   2    -0.178607555458E+04   -0.13090E-01   -0.13229E-01  1568   0.371E-01    0.964E-02
RMM:   3    -0.178607592645E+04   -0.37187E-03   -0.63801E-03  1803   0.608E-02    0.770E-02
RMM:   4    -0.178607587286E+04    0.53588E-04   -0.30024E-04  1076   0.150E-02
  967 T=  4240. E= -.16615247E+04 F= -.17860759E+04 E0= -.17860759E+04  EK= 0.13262E+03 SP= -.81E+01 SK= 0.81E-01
       N       E                     dE             d eps       ncg     rms          rms(c)
DAV:   1    -0.178611657848E+04   -0.40652E-01   -0.16108E-01  2808   0.324E+00    0.134E-01
RMM:   2    -0.178612965637E+04   -0.13078E-01   -0.13303E-01  1568   0.375E-01    0.990E-02
RMM:   3    -0.178613000263E+04   -0.34626E-03   -0.62833E-03  1805   0.609E-02    0.774E-02
RMM:   4    -0.178612994443E+04    0.58196E-04   -0.31966E-04  1095   0.157E-02
  968 T=  4214. E= -.16615221E+04 F= -.17861299E+04 E0= -.17861299E+04  EK= 0.13183E+03 SP= -.73E+01 SK= 0.13E+00
       N       E                     dE             d eps       ncg     rms          rms(c)
DAV:   1    -0.178618540337E+04   -0.55401E-01   -0.15546E-01  2808   0.324E+00    0.128E-01
RMM:   2    -0.178619854720E+04   -0.13144E-01   -0.13340E-01  1568   0.374E-01    0.998E-02
RMM:   3    -0.178619890522E+04   -0.35802E-03   -0.63544E-03  1814   0.610E-02    0.789E-02
RMM:   4    -0.178619884379E+04    0.61434E-04   -0.30042E-04  1074   0.153E-02
  969 T=  4184. E= -.16615184E+04 F= -.17861988E+04 E0= -.17861988E+04  EK= 0.13089E+03 SP= -.64E+01 SK= 0.17E+00
       N       E                     dE             d eps       ncg     rms          rms(c)
DAV:   1    -0.178627669203E+04   -0.77787E-01   -0.12043E-01  2840   0.323E+00    0.116E-01
RMM:   2    -0.178628909135E+04   -0.12399E-01   -0.12541E-01  1568   0.358E-01    0.966E-02
RMM:   3    -0.178628950622E+04   -0.41487E-03   -0.65657E-03  1811   0.599E-02    0.772E-02
RMM:   4    -0.178628944603E+04    0.60186E-04   -0.30099E-04  1077   0.153E-02
  970 T=  4150. E= -.16615139E+04 F= -.17862894E+04 E0= -.17862894E+04  EK= 0.12983E+03 SP= -.53E+01 SK= 0.22E+00
       N       E                     dE             d eps       ncg     rms          rms(c)
DAV:   1    -0.178639885762E+04   -0.10935E+00   -0.11710E-01  2816   0.321E+00    0.138E-01
RMM:   2    -0.178641012771E+04   -0.11270E-01   -0.11534E-01  1568   0.350E-01    0.885E-02
RMM:   3    -0.178641047317E+04   -0.34546E-03   -0.57457E-03  1800   0.571E-02    0.657E-02
RMM:   4    -0.178641042595E+04    0.47215E-04   -0.28331E-04  1057   0.151E-02
  971 T=  4114. E= -.16615089E+04 F= -.17864104E+04 E0= -.17864104E+04  EK= 0.12869E+03 SP= -.41E+01 SK= 0.26E+00
       N       E                     dE             d eps       ncg     rms          rms(c)
DAV:   1    -0.178655976386E+04   -0.14929E+00   -0.11839E-01  2792   0.321E+00    0.129E-01
RMM:   2    -0.178657108335E+04   -0.11319E-01   -0.11534E-01  1568   0.351E-01    0.913E-02
RMM:   3    -0.178657138192E+04   -0.29857E-03   -0.54234E-03  1800   0.565E-02    0.698E-02
RMM:   4    -0.178657132797E+04    0.53955E-04   -0.26773E-04  1051   0.146E-02
  972 T=  4077. E= -.16615032E+04 F= -.17865713E+04 E0= -.17865713E+04  EK= 0.12752E+03 SP= -.27E+01 SK= 0.29E+00
       N       E                     dE             d eps       ncg     rms          rms(c)
DAV:   1    -0.178677254357E+04   -0.20116E+00   -0.11873E-01  2808   0.320E+00    0.104E-01
RMM:   2    -0.178678373935E+04   -0.11196E-01   -0.11291E-01  1568   0.347E-01    0.973E-02
RMM:   3    -0.178678406033E+04   -0.32098E-03   -0.55107E-03  1797   0.565E-02    0.798E-02
RMM:   4    -0.178678399900E+04    0.61323E-04   -0.27430E-04  1054   0.149E-02
  973 T=  4039. E= -.16614981E+04 F= -.17867840E+04 E0= -.17867840E+04  EK= 0.12635E+03 SP= -.14E+01 SK= 0.31E+00
       N       E                     dE             d eps       ncg     rms          rms(c)
DAV:   1    -0.178704687382E+04   -0.26281E+00   -0.12437E-01  2832   0.317E+00    0.131E-01
RMM:   2    -0.178705815309E+04   -0.11279E-01   -0.11528E-01  1568   0.349E-01    0.932E-02
RMM:   3    -0.178705848309E+04   -0.33000E-03   -0.56321E-03  1793   0.573E-02    0.715E-02
RMM:   4    -0.178705843097E+04    0.52124E-04   -0.30864E-04  1063   0.159E-02
  974 T=  4003. E= -.16614931E+04 F= -.17870584E+04 E0= -.17870584E+04  EK= 0.12522E+03 SP= 0.28E-01 SK= 0.32E+00
       N       E                     dE             d eps       ncg     rms          rms(c)
DAV:   1    -0.178739093444E+04   -0.33245E+00   -0.13331E-01  2800   0.317E+00    0.137E-01
RMM:   2    -0.178740247431E+04   -0.11540E-01   -0.11810E-01  1568   0.353E-01    0.894E-02
RMM:   3    -0.178740277272E+04   -0.29841E-03   -0.55282E-03  1793   0.573E-02    0.675E-02
RMM:   4    -0.178740272126E+04    0.51461E-04   -0.27793E-04  1052   0.149E-02
  975 T=  3969. E= -.16614885E+04 F= -.17874027E+04 E0= -.17874027E+04  EK= 0.12417E+03 SP= 0.14E+01 SK= 0.31E+00
       N       E                     dE             d eps       ncg     rms          rms(c)
DAV:   1    -0.178781168530E+04   -0.40891E+00   -0.10937E-01  2800   0.316E+00    0.999E-02
RMM:   2    -0.178782255599E+04   -0.10871E-01   -0.10948E-01  1568   0.338E-01    0.931E-02
RMM:   3    -0.178782287490E+04   -0.31892E-03   -0.54731E-03  1780   0.557E-02    0.770E-02
RMM:   4    -0.178782281616E+04    0.58745E-04   -0.26113E-04  1041   0.144E-02
  976 T=  3939. E= -.16614846E+04 F= -.17878228E+04 E0= -.17878228E+04  EK= 0.12323E+03 SP= 0.28E+01 SK= 0.30E+00
       N       E                     dE             d eps       ncg     rms          rms(c)
DAV:   1    -0.178831340097E+04   -0.49053E+00   -0.11983E-01  2808   0.314E+00    0.122E-01
RMM:   2    -0.178832422534E+04   -0.10824E-01   -0.11015E-01  1568   0.340E-01    0.930E-02
RMM:   3    -0.178832453767E+04   -0.31233E-03   -0.54204E-03  1789   0.557E-02    0.728E-02
RMM:   4    -0.178832448535E+04    0.52321E-04   -0.28826E-04  1053   0.154E-02
  977 T=  3914. E= -.16614815E+04 F= -.17883245E+04 E0= -.17883245E+04  EK= 0.12243E+03 SP= 0.41E+01 SK= 0.27E+00
       N       E                     dE             d eps       ncg     rms          rms(c)
DAV:   1    -0.178890166994E+04   -0.57713E+00   -0.11376E-01  2800   0.314E+00    0.143E-01
RMM:   2    -0.178891265157E+04   -0.10982E-01   -0.11305E-01  1568   0.343E-01    0.878E-02
RMM:   3    -0.178891295740E+04   -0.30583E-03   -0.54811E-03  1789   0.563E-02    0.649E-02
RMM:   4    -0.178891290868E+04    0.48727E-04   -0.27770E-04  1048   0.151E-02
  978 T=  3893. E= -.16614793E+04 F= -.17889129E+04 E0= -.17889129E+04  EK= 0.12178E+03 SP= 0.54E+01 SK= 0.24E+00
       N       E                     dE             d eps       ncg     rms          rms(c)
DAV:   1    -0.178958092930E+04   -0.66797E+00   -0.11564E-01  2800   0.314E+00    0.110E-01
RMM:   2    -0.178959183047E+04   -0.10901E-01   -0.11013E-01  1568   0.340E-01    0.949E-02
RMM:   3    -0.178959211444E+04   -0.28397E-03   -0.52853E-03  1782   0.553E-02    0.770E-02
RMM:   4    -0.178959205355E+04    0.60890E-04   -0.25574E-04  1039   0.144E-02
  979 T=  3878. E= -.16614779E+04 F= -.17895921E+04 E0= -.17895921E+04  EK= 0.12131E+03 SP= 0.66E+01 SK= 0.21E+00
       N       E                     dE             d eps       ncg     rms          rms(c)
DAV:   1    -0.179035617372E+04   -0.76406E+00   -0.13136E-01  2760   0.313E+00    0.118E-01
RMM:   2    -0.179036741290E+04   -0.11239E-01   -0.11389E-01  1568   0.344E-01    0.989E-02
RMM:   3    -0.179036768739E+04   -0.27449E-03   -0.52607E-03  1790   0.556E-02    0.795E-02
RMM:   4    -0.179036762936E+04    0.58036E-04   -0.28453E-04  1051   0.154E-02
  980 T=  3869. E= -.16614777E+04 F= -.17903676E+04 E0= -.17903676E+04  EK= 0.12103E+03 SP= 0.77E+01 SK= 0.17E+00
       N       E                     dE             d eps       ncg     rms          rms(c)
DAV:   1    -0.179123481311E+04   -0.86713E+00   -0.88098E-02  2816   0.313E+00    0.131E-01
RMM:   2    -0.179124529874E+04   -0.10486E-01   -0.10758E-01  1568   0.331E-01    0.883E-02
RMM:   3    -0.179124562984E+04   -0.33111E-03   -0.54952E-03  1780   0.548E-02    0.663E-02
RMM:   4    -0.179124558263E+04    0.47218E-04   -0.26154E-04  1035   0.147E-02
  981 T=  3867. E= -.16614787E+04 F= -.17912456E+04 E0= -.17912456E+04  EK= 0.12096E+03 SP= 0.87E+01 SK= 0.14E+00
       N       E                     dE             d eps       ncg     rms          rms(c)
DAV:   1    -0.179221898508E+04   -0.97336E+00   -0.87034E-02  2808   0.313E+00    0.123E-01
RMM:   2    -0.179222935718E+04   -0.10372E-01   -0.10547E-01  1568   0.330E-01    0.850E-02
RMM:   3    -0.179222966598E+04   -0.30881E-03   -0.52580E-03  1781   0.541E-02    0.649E-02
RMM:   4    -0.179222961624E+04    0.49739E-04   -0.23933E-04  1018   0.141E-02
  982 T=  3871. E= -.16614809E+04 F= -.17922296E+04 E0= -.17922296E+04  EK= 0.12108E+03 SP= 0.96E+01 SK= 0.11E+00
       N       E                     dE             d eps       ncg     rms          rms(c)
DAV:   1    -0.179330922680E+04   -0.10796E+01   -0.81638E-02  2808   0.314E+00    0.106E-01
RMM:   2    -0.179331911120E+04   -0.98844E-02   -0.99958E-02  1568   0.325E-01    0.876E-02
RMM:   3    -0.179331940622E+04   -0.29501E-03   -0.49393E-03  1775   0.527E-02    0.697E-02
RMM:   4    -0.179331935643E+04    0.49790E-04   -0.22997E-04  1011   0.138E-02
  983 T=  3881. E= -.16614849E+04 F= -.17933194E+04 E0= -.17933194E+04  EK= 0.12141E+03 SP= 0.10E+02 SK= 0.89E-01
       N       E                     dE             d eps       ncg     rms          rms(c)
DAV:   1    -0.179449808948E+04   -0.11787E+01   -0.89011E-02  2824   0.314E+00    0.121E-01
RMM:   2    -0.179450801609E+04   -0.99266E-02   -0.10130E-01  1568   0.327E-01    0.841E-02
RMM:   3    -0.179450832124E+04   -0.30515E-03   -0.50461E-03  1775   0.535E-02    0.645E-02
RMM:   4    -0.179450827714E+04    0.44106E-04   -0.25662E-04  1035   0.144E-02
  984 T=  3897. E= -.16614907E+04 F= -.17945083E+04 E0= -.17945083E+04  EK= 0.12191E+03 SP= 0.11E+02 SK= 0.69E-01
       N       E                     dE             d eps       ncg     rms          rms(c)
DAV:   1    -0.179576961491E+04   -0.12613E+01   -0.10623E-01  2840   0.317E+00    0.124E-01
RMM:   2    -0.179578041532E+04   -0.10800E-01   -0.11008E-01  1568   0.340E-01    0.865E-02
RMM:   3    -0.179578070731E+04   -0.29199E-03   -0.52721E-03  1786   0.553E-02    0.666E-02
RMM:   4    -0.179578065840E+04    0.48911E-04   -0.24980E-04  1036   0.140E-02
  985 T=  3919. E= -.16614982E+04 F= -.17957807E+04 E0= -.17957807E+04  EK= 0.12258E+03 SP= 0.12E+02 SK= 0.55E-01
       N       E                     dE             d eps       ncg     rms          rms(c)
DAV:   1    -0.179709814486E+04   -0.13174E+01   -0.11700E-01  2792   0.319E+00    0.108E-01
RMM:   2    -0.179710951092E+04   -0.11366E-01   -0.11470E-01  1568   0.344E-01    0.916E-02
RMM:   3    -0.179710982658E+04   -0.31566E-03   -0.55745E-03  1782   0.566E-02    0.746E-02
RMM:   4    -0.179710977227E+04    0.54310E-04   -0.25969E-04  1053   0.142E-02
  986 T=  3943. E= -.16615071E+04 F= -.17971098E+04 E0= -.17971098E+04  EK= 0.12336E+03 SP= 0.12E+02 SK= 0.45E-01
       N       E                     dE             d eps       ncg     rms          rms(c)
DAV:   1    -0.179844677394E+04   -0.13369E+01   -0.12079E-01  2808   0.320E+00    0.125E-01
RMM:   2    -0.179845820866E+04   -0.11435E-01   -0.11626E-01  1568   0.345E-01    0.902E-02
RMM:   3    -0.179845853411E+04   -0.32545E-03   -0.56144E-03  1783   0.568E-02    0.698E-02
RMM:   4    -0.179845848687E+04    0.47236E-04   -0.27992E-04  1056   0.149E-02
  987 T=  3970. E= -.16615174E+04 F= -.17984585E+04 E0= -.17984585E+04  EK= 0.12419E+03 SP= 0.13E+02 SK= 0.40E-01
       N       E                     dE             d eps       ncg     rms          rms(c)
DAV:   1    -0.179976648399E+04   -0.13079E+01   -0.11327E-01  2840   0.323E+00    0.134E-01
RMM:   2    -0.179977778454E+04   -0.11301E-01   -0.11565E-01  1568   0.345E-01    0.865E-02
RMM:   3    -0.179977810557E+04   -0.32103E-03   -0.56209E-03  1784   0.567E-02    0.648E-02
RMM:   4    -0.179977805860E+04    0.46967E-04   -0.27937E-04  1067   0.147E-02
  988 T=  3997. E= -.16615281E+04 F= -.17997781E+04 E0= -.17997781E+04  EK= 0.12502E+03 SP= 0.13E+02 SK= 0.38E-01
       N       E                     dE             d eps       ncg     rms          rms(c)
DAV:   1    -0.180099888778E+04   -0.12208E+01   -0.12676E-01  2816   0.324E+00    0.116E-01
RMM:   2    -0.180101058294E+04   -0.11695E-01   -0.11827E-01  1568   0.350E-01    0.923E-02
RMM:   3    -0.180101087265E+04   -0.28971E-03   -0.55037E-03  1790   0.571E-02    0.733E-02
RMM:   4    -0.180101081800E+04    0.54650E-04   -0.27332E-04  1068   0.144E-02
  989 T=  4020. E= -.16615389E+04 F= -.18010108E+04 E0= -.18010108E+04  EK= 0.12576E+03 SP= 0.14E+02 SK= 0.39E-01
       N       E                     dE             d eps       ncg     rms          rms(c)
DAV:   1    -0.180208180048E+04   -0.10709E+01   -0.13841E-01  2760   0.326E+00    0.124E-01
RMM:   2    -0.180209423185E+04   -0.12431E-01   -0.12604E-01  1568   0.360E-01    0.968E-02
RMM:   3    -0.180209452345E+04   -0.29161E-03   -0.56491E-03  1794   0.585E-02    0.763E-02
RMM:   4    -0.180209446984E+04    0.53609E-04   -0.29556E-04  1079   0.152E-02
  990 T=  4038. E= -.16615485E+04 F= -.18020945E+04 E0= -.18020945E+04  EK= 0.12633E+03 SP= 0.14E+02 SK= 0.43E-01
       N       E                     dE             d eps       ncg     rms          rms(c)
DAV:   1    -0.180295713873E+04   -0.86262E+00   -0.14642E-01  2784   0.328E+00    0.135E-01
RMM:   2    -0.180297011413E+04   -0.12975E-01   -0.13227E-01  1568   0.368E-01    0.997E-02
RMM:   3    -0.180297040480E+04   -0.29067E-03   -0.57641E-03  1805   0.596E-02    0.767E-02
RMM:   4    -0.180297034889E+04    0.55910E-04   -0.31039E-04  1090   0.156E-02
  991 T=  4049. E= -.16615562E+04 F= -.18029703E+04 E0= -.18029703E+04  EK= 0.12666E+03 SP= 0.15E+02 SK= 0.48E-01
       N       E                     dE             d eps       ncg     rms          rms(c)
DAV:   1    -0.180357455024E+04   -0.60415E+00   -0.12658E-01  2816   0.329E+00    0.120E-01
RMM:   2    -0.180358710154E+04   -0.12551E-01   -0.12721E-01  1568   0.357E-01    0.978E-02
RMM:   3    -0.180358743062E+04   -0.32908E-03   -0.59486E-03  1797   0.589E-02    0.767E-02
RMM:   4    -0.180358737323E+04    0.57386E-04   -0.30418E-04  1085   0.153E-02
  992 T=  4050. E= -.16615614E+04 F= -.18035874E+04 E0= -.18035874E+04  EK= 0.12670E+03 SP= 0.15E+02 SK= 0.55E-01
       N       E                     dE             d eps       ncg     rms          rms(c)
DAV:   1    -0.180389564933E+04   -0.30822E+00   -0.12625E-01  2832   0.328E+00    0.128E-01
RMM:   2    -0.180390760995E+04   -0.11961E-01   -0.12148E-01  1568   0.353E-01    0.950E-02
RMM:   3    -0.180390788986E+04   -0.27991E-03   -0.54324E-03  1788   0.571E-02    0.731E-02
RMM:   4    -0.180390783618E+04    0.53681E-04   -0.30296E-04  1082   0.155E-02
  993 T=  4041. E= -.16615637E+04 F= -.18039078E+04 E0= -.18039078E+04  EK= 0.12641E+03 SP= 0.16E+02 SK= 0.62E-01
       N       E                     dE             d eps       ncg     rms          rms(c)
DAV:   1    -0.180389876360E+04    0.91263E-02   -0.13123E-01  2792   0.328E+00    0.134E-01
RMM:   2    -0.180391094878E+04   -0.12185E-01   -0.12428E-01  1568   0.357E-01    0.959E-02
RMM:   3    -0.180391120689E+04   -0.25811E-03   -0.53241E-03  1791   0.572E-02    0.732E-02
RMM:   4    -0.180391115283E+04    0.54065E-04   -0.29601E-04  1083   0.153E-02
  994 T=  4021. E= -.16615622E+04 F= -.18039112E+04 E0= -.18039112E+04  EK= 0.12577E+03 SP= 0.17E+02 SK= 0.67E-01
       N       E                     dE             d eps       ncg     rms          rms(c)
DAV:   1    -0.180358609077E+04    0.32512E+00   -0.11689E-01  2792   0.327E+00    0.118E-01
RMM:   2    -0.180359813853E+04   -0.12048E-01   -0.12194E-01  1568   0.352E-01    0.103E-01
RMM:   3    -0.180359840049E+04   -0.26196E-03   -0.53075E-03  1790   0.569E-02    0.820E-02
RMM:   4    -0.180359833635E+04    0.64147E-04   -0.31189E-04  1099   0.157E-02
  995 T=  3990. E= -.16615575E+04 F= -.18035983E+04 E0= -.18035983E+04  EK= 0.12481E+03 SP= 0.17E+02 SK= 0.68E-01
       N       E                     dE             d eps       ncg     rms          rms(c)
DAV:   1    -0.180297826767E+04    0.62013E+00   -0.12120E-01  2768   0.324E+00    0.129E-01
RMM:   2    -0.180299027370E+04   -0.12006E-01   -0.12218E-01  1568   0.350E-01    0.997E-02
RMM:   3    -0.180299055043E+04   -0.27673E-03   -0.54027E-03  1788   0.569E-02    0.770E-02
RMM:   4    -0.180299049342E+04    0.57016E-04   -0.31574E-04  1092   0.160E-02
  996 T=  3950. E= -.16615497E+04 F= -.18029905E+04 E0= -.18029905E+04  EK= 0.12357E+03 SP= 0.18E+02 SK= 0.63E-01
       N       E                     dE             d eps       ncg     rms          rms(c)
DAV:   1    -0.180211508992E+04    0.87546E+00   -0.14743E-01  2792   0.322E+00    0.145E-01
RMM:   2    -0.180212743632E+04   -0.12346E-01   -0.12638E-01  1568   0.358E-01    0.952E-02
RMM:   3    -0.180212769441E+04   -0.25809E-03   -0.55079E-03  1793   0.579E-02    0.711E-02
RMM:   4    -0.180212763982E+04    0.54597E-04   -0.29467E-04  1079   0.155E-02
  997 T=  3904. E= -.16615397E+04 F= -.18021276E+04 E0= -.18021276E+04  EK= 0.12212E+03 SP= 0.18E+02 SK= 0.52E-01
       N       E                     dE             d eps       ncg     rms          rms(c)
DAV:   1    -0.180105147198E+04    0.10762E+01   -0.15906E-01  2760   0.320E+00    0.123E-01
RMM:   2    -0.180106405034E+04   -0.12578E-01   -0.12727E-01  1568   0.359E-01    0.104E-01
RMM:   3    -0.180106428893E+04   -0.23859E-03   -0.54919E-03  1794   0.580E-02    0.827E-02
RMM:   4    -0.180106422106E+04    0.67872E-04   -0.29700E-04  1079   0.154E-02
  998 T=  3854. E= -.16615284E+04 F= -.18010642E+04 E0= -.18010642E+04  EK= 0.12055E+03 SP= 0.19E+02 SK= 0.37E-01
       N       E                     dE             d eps       ncg     rms          rms(c)
DAV:   1    -0.179985438318E+04    0.12099E+01   -0.93353E-02  2808   0.316E+00    0.108E-01
RMM:   2    -0.179986528772E+04   -0.10905E-01   -0.11042E-01  1568   0.329E-01    0.931E-02
RMM:   3    -0.179986560914E+04   -0.32142E-03   -0.54945E-03  1772   0.552E-02    0.739E-02
RMM:   4    -0.179986555459E+04    0.54543E-04   -0.27904E-04  1060   0.149E-02
  999 T=  3803. E= -.16615168E+04 F= -.17998656E+04 E0= -.17998656E+04  EK= 0.11896E+03 SP= 0.19E+02 SK= 0.19E-01
       N       E                     dE             d eps       ncg     rms          rms(c)
DAV:   1    -0.179858997984E+04    0.12756E+01   -0.94013E-02  2856   0.313E+00    0.142E-01
RMM:   2    -0.179860026926E+04   -0.10289E-01   -0.10607E-01  1568   0.327E-01    0.822E-02
RMM:   3    -0.179860054682E+04   -0.27757E-03   -0.50709E-03  1778   0.540E-02    0.588E-02
RMM:   4    -0.179860050333E+04    0.43487E-04   -0.26323E-04  1049   0.146E-02
 1000 T=  3755. E= -.16615053E+04 F= -.17986005E+04 E0= -.17986005E+04  EK= 0.11746E+03 SP= 0.20E+02 SK= 0.48E-02
