 243 243   0   0
  0.1311381E+02  0.1499190E-08  0.1499190E-08  0.1637160E-08  0.5000000E-15
  1.000000000000000E-004
  CAR 
 (Si O2)81  (P1) ~ Ciellie_MCM41 (MD     
     12.80673339    -20.33068667  301      1.11198556      1.00000000
    -20.331  0.0000E+00  0.0000E+00
    -20.220  0.0000E+00  0.0000E+00
    -20.110  0.0000E+00  0.0000E+00
    -19.999  0.0000E+00  0.0000E+00
    -19.889  0.0000E+00  0.0000E+00
    -19.778  0.0000E+00  0.0000E+00
    -19.668  0.0000E+00  0.0000E+00
    -19.557  0.0000E+00  0.0000E+00
    -19.447  0.0000E+00  0.0000E+00
    -19.337  0.0000E+00  0.0000E+00
    -19.226  0.0000E+00  0.0000E+00
    -19.116  0.9307E-17  0.1028E-17
    -19.005  0.6170E-07  0.6815E-08
    -18.895  0.2657E-01  0.2935E-02
    -18.784  0.6398E+01  0.7097E+00
    -18.674  0.3170E+02  0.4212E+01
    -18.563  0.5354E+02  0.1013E+02
    -18.453  0.7962E+02  0.1892E+02
    -18.342  0.1562E+03  0.3618E+02
    -18.232  0.1605E+03  0.5390E+02
    -18.122  0.3080E+02  0.5730E+02
    -18.011  0.4201E+02  0.6194E+02
    -17.901  0.1152E+03  0.7467E+02
    -17.790  0.1802E+03  0.9457E+02
    -17.680  0.6466E+02  0.1017E+03
    -17.569  0.3133E+02  0.1052E+03
    -17.459  0.2525E+02  0.1080E+03
    -17.348  0.6512E+02  0.1152E+03
    -17.238  0.1991E+03  0.1371E+03
    -17.127  0.9283E+02  0.1474E+03
    -17.017  0.5131E+02  0.1531E+03
    -16.906  0.3597E+02  0.1570E+03
    -16.796  0.2514E+02  0.1598E+03
    -16.686  0.2008E+03  0.1820E+03
    -16.575  0.1233E+04  0.3182E+03
    -16.465  0.5244E+02  0.3240E+03
    -16.354  0.1539E-02  0.3240E+03
    -16.244  0.9577E-11  0.3240E+03
    -16.133  0.0000E+00  0.3240E+03
    -16.023  0.0000E+00  0.3240E+03
    -15.912  0.0000E+00  0.3240E+03
    -15.802  0.0000E+00  0.3240E+03
    -15.691  0.0000E+00  0.3240E+03
    -15.581  0.0000E+00  0.3240E+03
    -15.471  0.0000E+00  0.3240E+03
    -15.360  0.0000E+00  0.3240E+03
    -15.250  0.0000E+00  0.3240E+03
    -15.139  0.0000E+00  0.3240E+03
    -15.029  0.0000E+00  0.3240E+03
    -14.918  0.0000E+00  0.3240E+03
    -14.808  0.0000E+00  0.3240E+03
    -14.697  0.0000E+00  0.3240E+03
    -14.587  0.0000E+00  0.3240E+03
    -14.476  0.0000E+00  0.3240E+03
    -14.366  0.0000E+00  0.3240E+03
    -14.255  0.0000E+00  0.3240E+03
    -14.145  0.0000E+00  0.3240E+03
    -14.035  0.0000E+00  0.3240E+03
    -13.924  0.0000E+00  0.3240E+03
    -13.814  0.0000E+00  0.3240E+03
    -13.703  0.0000E+00  0.3240E+03
    -13.593  0.0000E+00  0.3240E+03
    -13.482  0.0000E+00  0.3240E+03
    -13.372  0.0000E+00  0.3240E+03
    -13.261  0.0000E+00  0.3240E+03
    -13.151  0.0000E+00  0.3240E+03
    -13.040  0.0000E+00  0.3240E+03
    -12.930  0.0000E+00  0.3240E+03
    -12.820  0.0000E+00  0.3240E+03
    -12.709  0.0000E+00  0.3240E+03
    -12.599  0.0000E+00  0.3240E+03
    -12.488  0.0000E+00  0.3240E+03
    -12.378  0.0000E+00  0.3240E+03
    -12.267  0.0000E+00  0.3240E+03
    -12.157  0.0000E+00  0.3240E+03
    -12.046  0.0000E+00  0.3240E+03
    -11.936  0.0000E+00  0.3240E+03
    -11.825  0.0000E+00  0.3240E+03
    -11.715  0.0000E+00  0.3240E+03
    -11.604  0.0000E+00  0.3240E+03
    -11.494  0.0000E+00  0.3240E+03
    -11.384  0.0000E+00  0.3240E+03
    -11.273  0.0000E+00  0.3240E+03
    -11.163  0.0000E+00  0.3240E+03
    -11.052  0.0000E+00  0.3240E+03
    -10.942  0.0000E+00  0.3240E+03
    -10.831  0.0000E+00  0.3240E+03
    -10.721  0.0000E+00  0.3240E+03
    -10.610  0.0000E+00  0.3240E+03
    -10.500  0.0000E+00  0.3240E+03
    -10.389  0.0000E+00  0.3240E+03
    -10.279  0.0000E+00  0.3240E+03
    -10.169  0.0000E+00  0.3240E+03
    -10.058  0.0000E+00  0.3240E+03
     -9.948  0.0000E+00  0.3240E+03
     -9.837  0.0000E+00  0.3240E+03
     -9.727  0.0000E+00  0.3240E+03
     -9.616  0.0000E+00  0.3240E+03
     -9.506  0.0000E+00  0.3240E+03
     -9.395  0.0000E+00  0.3240E+03
     -9.285  0.1709E-12  0.3240E+03
     -9.174  0.8373E-05  0.3240E+03
     -9.064  0.1068E+00  0.3240E+03
     -8.954  0.3120E+01  0.3244E+03
     -8.843  0.7719E+01  0.3252E+03
     -8.733  0.1089E+02  0.3264E+03
     -8.622  0.1429E+02  0.3280E+03
     -8.512  0.1835E+02  0.3300E+03
     -8.401  0.2073E+02  0.3323E+03
     -8.291  0.2720E+02  0.3353E+03
     -8.180  0.3327E+02  0.3390E+03
     -8.070  0.5264E+02  0.3448E+03
     -7.959  0.1561E+03  0.3620E+03
     -7.849  0.8287E+02  0.3712E+03
     -7.738  0.3811E+02  0.3754E+03
     -7.628  0.1643E+02  0.3772E+03
     -7.518  0.1280E+02  0.3786E+03
     -7.407  0.1006E+02  0.3797E+03
     -7.297  0.1275E+02  0.3812E+03
     -7.186  0.1645E+02  0.3830E+03
     -7.076  0.2281E+02  0.3855E+03
     -6.965  0.3440E+02  0.3893E+03
     -6.855  0.7747E+02  0.3978E+03
     -6.744  0.1094E+03  0.4099E+03
     -6.634  0.7284E+02  0.4180E+03
     -6.523  0.4439E+02  0.4229E+03
     -6.413  0.2716E+02  0.4259E+03
     -6.303  0.2056E+02  0.4282E+03
     -6.192  0.1364E+02  0.4297E+03
     -6.082  0.3400E+02  0.4334E+03
     -5.971  0.5562E+02  0.4396E+03
     -5.861  0.6880E+02  0.4472E+03
     -5.750  0.5979E+02  0.4538E+03
     -5.640  0.5286E+02  0.4596E+03
     -5.529  0.5014E+02  0.4651E+03
     -5.419  0.4637E+02  0.4703E+03
     -5.308  0.4209E+02  0.4749E+03
     -5.198  0.3667E+02  0.4790E+03
     -5.087  0.5585E+02  0.4851E+03
     -4.977  0.1851E+03  0.5056E+03
     -4.867  0.2291E+03  0.5309E+03
     -4.756  0.1622E+03  0.5488E+03
     -4.646  0.1369E+03  0.5639E+03
     -4.535  0.1367E+03  0.5790E+03
     -4.425  0.1238E+03  0.5927E+03
     -4.314  0.9502E+02  0.6032E+03
     -4.204  0.1545E+03  0.6203E+03
     -4.093  0.1139E+03  0.6328E+03
     -3.983  0.8581E+02  0.6423E+03
     -3.872  0.4716E+02  0.6475E+03
     -3.762  0.4196E+01  0.6480E+03
     -3.652  0.3834E-02  0.6480E+03
     -3.541  0.1477E-08  0.6480E+03
     -3.431  0.0000E+00  0.6480E+03
     -3.320  0.0000E+00  0.6480E+03
     -3.210  0.0000E+00  0.6480E+03
     -3.099  0.0000E+00  0.6480E+03
     -2.989  0.0000E+00  0.6480E+03
     -2.878  0.0000E+00  0.6480E+03
     -2.768  0.7806E-08  0.6480E+03
     -2.657  0.2491E-01  0.6480E+03
     -2.547  0.2984E+02  0.6513E+03
     -2.436  0.2738E+03  0.6815E+03
     -2.326  0.2519E+03  0.7094E+03
     -2.216  0.2187E+03  0.7335E+03
     -2.105  0.1691E+03  0.7522E+03
     -1.995  0.1289E+03  0.7664E+03
     -1.884  0.1908E+03  0.7875E+03
     -1.774  0.1972E+03  0.8093E+03
     -1.663  0.1530E+03  0.8262E+03
     -1.553  0.2159E+03  0.8501E+03
     -1.442  0.2931E+03  0.8824E+03
     -1.332  0.2854E+03  0.9140E+03
     -1.221  0.1206E+03  0.9273E+03
     -1.111  0.1195E+03  0.9405E+03
     -1.001  0.2286E+03  0.9657E+03
     -0.890  0.3247E+03  0.1002E+04
     -0.780  0.1697E+03  0.1020E+04
     -0.669  0.1409E+03  0.1036E+04
     -0.559  0.1817E+03  0.1056E+04
     -0.448  0.1757E+03  0.1075E+04
     -0.338  0.1181E+03  0.1088E+04
     -0.227  0.1531E+03  0.1105E+04
     -0.117  0.2059E+03  0.1128E+04
     -0.006  0.1776E+03  0.1148E+04
      0.104  0.1839E+03  0.1168E+04
      0.215  0.1639E+03  0.1186E+04
      0.325  0.1779E+03  0.1206E+04
      0.435  0.2077E+03  0.1229E+04
      0.546  0.1752E+03  0.1248E+04
      0.656  0.1439E+03  0.1264E+04
      0.767  0.2306E+03  0.1289E+04
      0.877  0.5938E+02  0.1296E+04
      0.988  0.2810E+00  0.1296E+04
      1.098  0.1169E-05  0.1296E+04
      1.209  0.3909E-15  0.1296E+04
      1.319  0.0000E+00  0.1296E+04
      1.430  0.0000E+00  0.1296E+04
      1.540  0.0000E+00  0.1296E+04
      1.650  0.0000E+00  0.1296E+04
      1.761  0.0000E+00  0.1296E+04
      1.871  0.0000E+00  0.1296E+04
      1.982  0.0000E+00  0.1296E+04
      2.092  0.0000E+00  0.1296E+04
      2.203  0.0000E+00  0.1296E+04
      2.313  0.0000E+00  0.1296E+04
      2.424  0.0000E+00  0.1296E+04
      2.534  0.0000E+00  0.1296E+04
      2.645  0.0000E+00  0.1296E+04
      2.755  0.0000E+00  0.1296E+04
      2.866  0.0000E+00  0.1296E+04
      2.976  0.0000E+00  0.1296E+04
      3.086  0.0000E+00  0.1296E+04
      3.197  0.0000E+00  0.1296E+04
      3.307  0.0000E+00  0.1296E+04
      3.418  0.0000E+00  0.1296E+04
      3.528  0.0000E+00  0.1296E+04
      3.639  0.0000E+00  0.1296E+04
      3.749  0.0000E+00  0.1296E+04
      3.860  0.0000E+00  0.1296E+04
      3.970  0.0000E+00  0.1296E+04
      4.081  0.0000E+00  0.1296E+04
      4.191  0.0000E+00  0.1296E+04
      4.301  0.0000E+00  0.1296E+04
      4.412  0.0000E+00  0.1296E+04
      4.522  0.0000E+00  0.1296E+04
      4.633  0.0000E+00  0.1296E+04
      4.743  0.0000E+00  0.1296E+04
      4.854  0.0000E+00  0.1296E+04
      4.964  0.0000E+00  0.1296E+04
      5.075  0.0000E+00  0.1296E+04
      5.185  0.0000E+00  0.1296E+04
      5.296  0.0000E+00  0.1296E+04
      5.406  0.0000E+00  0.1296E+04
      5.517  0.0000E+00  0.1296E+04
      5.627  0.0000E+00  0.1296E+04
      5.737  0.0000E+00  0.1296E+04
      5.848  0.0000E+00  0.1296E+04
      5.958  0.0000E+00  0.1296E+04
      6.069  0.0000E+00  0.1296E+04
      6.179  0.0000E+00  0.1296E+04
      6.290  0.0000E+00  0.1296E+04
      6.400  0.0000E+00  0.1296E+04
      6.511  0.3553E-11  0.1296E+04
      6.621  0.3458E-04  0.1296E+04
      6.732  0.9691E-01  0.1296E+04
      6.842  0.1642E+01  0.1296E+04
      6.952  0.3712E+01  0.1297E+04
      7.063  0.4718E+01  0.1297E+04
      7.173  0.6254E+01  0.1298E+04
      7.284  0.6515E+01  0.1299E+04
      7.394  0.8774E+01  0.1300E+04
      7.505  0.8629E+01  0.1300E+04
      7.615  0.1087E+02  0.1302E+04
      7.726  0.1151E+02  0.1303E+04
      7.836  0.1199E+02  0.1304E+04
      7.947  0.1565E+02  0.1306E+04
      8.057  0.1272E+02  0.1307E+04
      8.167  0.1875E+02  0.1309E+04
      8.278  0.1742E+02  0.1311E+04
      8.388  0.1937E+02  0.1314E+04
      8.499  0.2158E+02  0.1316E+04
      8.609  0.2561E+02  0.1319E+04
      8.720  0.2266E+02  0.1321E+04
      8.830  0.3455E+02  0.1325E+04
      8.941  0.3172E+02  0.1329E+04
      9.051  0.3373E+02  0.1332E+04
      9.162  0.3343E+02  0.1336E+04
      9.272  0.3014E+02  0.1339E+04
      9.383  0.3363E+02  0.1343E+04
      9.493  0.2791E+02  0.1346E+04
      9.603  0.3828E+02  0.1350E+04
      9.714  0.4193E+02  0.1355E+04
      9.824  0.7403E+02  0.1363E+04
      9.935  0.1193E+03  0.1376E+04
     10.045  0.1647E+03  0.1395E+04
     10.156  0.1409E+03  0.1410E+04
     10.266  0.1211E+03  0.1423E+04
     10.377  0.1302E+03  0.1438E+04
     10.487  0.1687E+03  0.1456E+04
     10.598  0.2476E+03  0.1484E+04
     10.708  0.2137E+03  0.1507E+04
     10.818  0.1585E+03  0.1525E+04
     10.929  0.1113E+03  0.1537E+04
     11.039  0.1071E+03  0.1549E+04
     11.150  0.1010E+03  0.1560E+04
     11.260  0.6049E+02  0.1567E+04
     11.371  0.1007E+02  0.1568E+04
     11.481  0.2935E-01  0.1568E+04
     11.592  0.6833E-07  0.1568E+04
     11.702  0.0000E+00  0.1568E+04
     11.813  0.0000E+00  0.1568E+04
     11.923  0.0000E+00  0.1568E+04
     12.034  0.0000E+00  0.1568E+04
     12.144  0.0000E+00  0.1568E+04
     12.254  0.0000E+00  0.1568E+04
     12.365  0.0000E+00  0.1568E+04
     12.475  0.0000E+00  0.1568E+04
     12.586  0.0000E+00  0.1568E+04
     12.696  0.0000E+00  0.1568E+04
     12.807  0.0000E+00  0.1568E+04
