  243  243    1    1
  0.1311381E+02  0.1499190E-08  0.1499190E-08  0.1637160E-08  0.5000000E-15
  1.000000000000000E-004
  CAR 
 (Si O2)81  (P1) ~ Ciellie_MCM41 (MD     
   1296     28    784
 
  0.0000000E+00  0.0000000E+00  0.0000000E+00  0.4629630E-02
    1      -18.824440
    2      -18.615615
    3      -18.615613
    4      -18.536829
    5      -18.536821
    6      -18.536771
    7      -18.536652
    8      -18.536601
    9      -18.536594
   10      -18.407094
   11      -18.407093
   12      -18.407050
   13      -18.407048
   14      -18.407015
   15      -18.407013
   16      -18.406924
   17      -18.406922
   18      -18.406889
   19      -18.406887
   20      -18.406841
   21      -18.406840
   22      -18.279490
   23      -18.279488
   24      -18.279487
   25      -18.279485
   26      -18.116350
   27      -18.116347
   28      -18.116315
   29      -18.116313
   30      -18.045033
   31      -18.045032
   32      -17.949326
   33      -17.949325
   34      -17.949274
   35      -17.949274
   36      -17.949202
   37      -17.949201
   38      -17.949191
   39      -17.949190
   40      -17.949121
   41      -17.949121
   42      -17.949068
   43      -17.949067
   44      -17.799748
   45      -17.799748
   46      -17.799746
   47      -17.799746
   48      -17.672608
   49      -17.672604
   50      -17.672591
   51      -17.672333
   52      -17.672330
   53      -17.672319
   54      -17.457539
   55      -17.457539
   56      -17.457537
   57      -17.457536
   58      -17.313547
   59      -17.313543
   60      -17.288647
   61      -17.288602
   62      -17.275989
   63      -17.275878
   64      -17.275853
   65      -17.275762
   66      -17.275743
   67      -17.275634
   68      -17.136333
   69      -17.136332
   70      -17.136331
   71      -17.136331
   72      -17.136274
   73      -17.136273
   74      -17.136270
   75      -17.136268
   76      -17.136213
   77      -17.136212
   78      -17.136212
   79      -17.136211
   80      -16.692159
   81      -16.692156
   82      -16.666312
   83      -16.666309
   84      -16.666309
   85      -16.666306
   86      -16.658514
   87      -16.654971
   88      -16.654971
   89      -16.654957
   90      -16.654956
   91      -16.653510
   92      -16.653508
   93      -16.653462
   94      -16.653461
   95      -16.653382
   96      -16.653379
   97      -16.653321
   98      -16.653318
   99      -16.653237
  100      -16.653236
  101      -16.653175
  102      -16.653174
  103      -16.651898
  104      -16.651893
  105      -16.651891
  106      -16.651831
  107      -16.651827
  108      -16.651824
  109      -16.647261
  110      -16.647257
  111      -16.646836
  112      -16.646834
  113      -16.645733
  114      -16.645731
  115      -16.645708
  116      -16.645706
  117      -16.645694
  118      -16.645692
  119      -16.645659
  120      -16.645656
  121      -16.645636
  122      -16.645632
  123      -16.645584
  124      -16.645580
  125      -16.644831
  126      -16.644826
  127      -16.644790
  128      -16.644696
  129      -16.644652
  130      -16.644641
  131      -16.639535
  132      -16.639533
  133      -16.639492
  134      -16.639489
  135      -16.638870
  136      -16.638870
  137      -16.638866
  138      -16.638866
  139      -16.635630
  140      -16.635517
  141      -16.635489
  142      -16.635400
  143      -16.635375
  144      -16.635254
  145      -16.627611
  146      -16.627611
  147      -16.626811
  148      -16.626810
  149      -16.626717
  150      -16.626716
  151      -16.626701
  152      -16.626699
  153      -16.626598
  154      -16.626596
  155      -16.626584
  156      -16.626584
  157      -16.626474
  158      -16.626474
  159      -16.621864
  160      -16.621861
  161      -16.620448
  162      -16.620394
  163       -8.885781
  164       -8.885778
  165       -8.192272
  166       -8.192271
  167       -8.192242
  168       -8.192241
  169       -8.192206
  170       -8.192203
  171       -8.192179
  172       -8.192176
  173       -8.192140
  174       -8.192139
  175       -8.192110
  176       -8.192110
  177       -8.077989
  178       -8.077989
  179       -7.956824
  180       -7.956822
  181       -7.956799
  182       -7.956749
  183       -7.956729
  184       -7.956719
  185       -7.826445
  186       -7.826417
  187       -7.673560
  188       -7.673559
  189       -7.673558
  190       -7.673557
  191       -7.181719
  192       -7.181717
  193       -7.181706
  194       -7.181704
  195       -7.181699
  196       -7.181694
  197       -6.765241
  198       -6.765240
  199       -6.765238
  200       -6.765238
  201       -6.656570
  202       -6.656569
  203       -6.656564
  204       -6.656562
  205       -6.656523
  206       -6.656523
  207       -6.656481
  208       -6.656481
  209       -6.656440
  210       -6.656439
  211       -6.656438
  212       -6.656438
  213       -6.330851
  214       -6.330850
  215       -6.159306
  216       -6.159303
  217       -6.159272
  218       -6.159269
  219       -6.156278
  220       -6.156275
  221       -6.156275
  222       -6.156273
  223       -5.718678
  224       -5.718677
  225       -5.718669
  226       -5.718669
  227       -5.718627
  228       -5.718626
  229       -5.718626
  230       -5.718625
  231       -5.718593
  232       -5.718592
  233       -5.718586
  234       -5.718585
  235       -5.149679
  236       -5.149677
  237       -5.145490
  238       -5.145488
  239       -5.102142
  240       -5.102142
  241       -5.055116
  242       -5.053414
  243       -5.053414
  244       -5.053410
  245       -5.053394
  246       -5.053393
  247       -5.053391
  248       -5.035674
  249       -5.035646
  250       -5.035604
  251       -5.035577
  252       -5.035566
  253       -5.035497
  254       -4.937721
  255       -4.937720
  256       -4.937690
  257       -4.937689
  258       -4.937686
  259       -4.937685
  260       -4.937642
  261       -4.937641
  262       -4.937640
  263       -4.937638
  264       -4.937601
  265       -4.937600
  266       -4.869825
  267       -4.869800
  268       -4.869790
  269       -4.869755
  270       -4.869752
  271       -4.869738
  272       -4.842332
  273       -4.842330
  274       -4.842307
  275       -4.842305
  276       -4.822924
  277       -4.822924
  278       -4.822923
  279       -4.822923
  280       -4.725681
  281       -4.633075
  282       -4.633069
  283       -4.509568
  284       -4.509568
  285       -4.509559
  286       -4.509559
  287       -4.509524
  288       -4.509523
  289       -4.509521
  290       -4.509520
  291       -4.509483
  292       -4.509482
  293       -4.509470
  294       -4.509470
  295       -4.443737
  296       -4.443735
  297       -4.443733
  298       -4.443730
  299       -4.269724
  300       -4.269723
  301       -4.269722
  302       -4.269721
  303       -4.253434
  304       -4.253434
  305       -4.253400
  306       -4.253399
  307       -4.253394
  308       -4.253392
  309       -4.253389
  310       -4.253387
  311       -4.253383
  312       -4.253382
  313       -4.253344
  314       -4.253343
  315       -4.106084
  316       -4.106065
  317       -4.106054
  318       -4.106042
  319       -4.106033
  320       -4.106023
  321       -4.003769
  322       -4.003766
  323       -3.855229
  324       -3.855226
  325       -2.538066
  326       -2.538064
  327       -2.538063
  328       -2.538062
  329       -2.481726
  330       -2.481725
  331       -2.481709
  332       -2.481709
  333       -2.481648
  334       -2.481648
  335       -2.481643
  336       -2.481643
  337       -2.481583
  338       -2.481583
  339       -2.481567
  340       -2.481566
  341       -2.456134
  342       -2.456117
  343       -2.456117
  344       -2.456041
  345       -2.456036
  346       -2.456024
  347       -2.322547
  348       -2.322545
  349       -2.322426
  350       -2.322425
  351       -2.283483
  352       -2.283482
  353       -2.283469
  354       -2.283468
  355       -2.283424
  356       -2.283423
  357       -2.283366
  358       -2.283366
  359       -2.283326
  360       -2.283326
  361       -2.283311
  362       -2.283311
  363       -2.223855
  364       -2.216316
  365       -2.216316
  366       -2.216314
  367       -2.216314
  368       -2.185524
  369       -2.185503
  370       -2.185489
  371       -2.185413
  372       -2.185386
  373       -2.185365
  374       -2.180930
  375       -2.180929
  376       -2.179856
  377       -2.179843
  378       -2.147995
  379       -2.147995
  380       -2.147993
  381       -2.147993
  382       -2.020179
  383       -2.020176
  384       -2.014380
  385       -2.014378
  386       -1.892961
  387       -1.892959
  388       -1.889356
  389       -1.889291
  390       -1.889265
  391       -1.889264
  392       -1.889245
  393       -1.889176
  394       -1.832815
  395       -1.832813
  396       -1.832784
  397       -1.832782
  398       -1.832761
  399       -1.832759
  400       -1.832726
  401       -1.832724
  402       -1.832681
  403       -1.832679
  404       -1.832622
  405       -1.832620
  406       -1.829798
  407       -1.680080
  408       -1.680051
  409       -1.679907
  410       -1.679881
  411       -1.679837
  412       -1.679781
  413       -1.648132
  414       -1.648132
  415       -1.648108
  416       -1.648107
  417       -1.648086
  418       -1.648085
  419       -1.648081
  420       -1.648080
  421       -1.648052
  422       -1.648051
  423       -1.648037
  424       -1.648036
  425       -1.555954
  426       -1.555953
  427       -1.497233
  428       -1.497233
  429       -1.497175
  430       -1.497174
  431       -1.497172
  432       -1.497171
  433       -1.497162
  434       -1.497162
  435       -1.497161
  436       -1.497161
  437       -1.497109
  438       -1.497108
  439       -1.484671
  440       -1.484670
  441       -1.406577
  442       -1.406575
  443       -1.373017
  444       -1.373014
  445       -1.373008
  446       -1.373005
  447       -1.371085
  448       -1.371048
  449       -1.370972
  450       -1.370966
  451       -1.370939
  452       -1.370886
  453       -1.334393
  454       -1.334392
  455       -1.334392
  456       -1.334392
  457       -1.310549
  458       -1.310548
  459       -1.310514
  460       -1.310513
  461       -1.275164
  462       -1.275164
  463       -1.275163
  464       -1.275163
  465       -1.223636
  466       -1.223623
  467       -1.223591
  468       -1.223574
  469       -1.223521
  470       -1.223510
  471       -1.148847
  472       -1.148847
  473       -1.120756
  474       -1.120756
  475       -1.044597
  476       -1.044593
  477       -1.041194
  478       -1.041192
  479       -0.982332
  480       -0.982324
  481       -0.982321
  482       -0.982321
  483       -0.982103
  484       -0.982097
  485       -0.981506
  486       -0.973791
  487       -0.973401
  488       -0.929856
  489       -0.929855
  490       -0.929831
  491       -0.929829
  492       -0.929777
  493       -0.929775
  494       -0.929742
  495       -0.929741
  496       -0.929720
  497       -0.929718
  498       -0.929646
  499       -0.929645
  500       -0.866977
  501       -0.866976
  502       -0.866950
  503       -0.866949
  504       -0.866916
  505       -0.866916
  506       -0.866882
  507       -0.866881
  508       -0.866863
  509       -0.866863
  510       -0.866840
  511       -0.866840
  512       -0.695507
  513       -0.695501
  514       -0.695304
  515       -0.695299
  516       -0.656493
  517       -0.656492
  518       -0.656433
  519       -0.656432
  520       -0.656420
  521       -0.656419
  522       -0.656343
  523       -0.656343
  524       -0.656343
  525       -0.656342
  526       -0.656287
  527       -0.656285
  528       -0.631115
  529       -0.631115
  530       -0.631111
  531       -0.631111
  532       -0.445152
  533       -0.445114
  534       -0.445043
  535       -0.444996
  536       -0.444988
  537       -0.444873
  538       -0.377972
  539       -0.377971
  540       -0.377969
  541       -0.377969
  542       -0.326660
  543       -0.326657
  544       -0.282541
  545       -0.282523
  546       -0.282332
  547       -0.282314
  548       -0.282305
  549       -0.282283
  550       -0.275796
  551       -0.275795
  552       -0.275786
  553       -0.275786
  554       -0.225903
  555       -0.225673
  556       -0.138900
  557       -0.138900
  558       -0.138886
  559       -0.138886
  560       -0.138879
  561       -0.138879
  562       -0.138857
  563       -0.138857
  564       -0.138788
  565       -0.138786
  566       -0.138766
  567       -0.138765
  568       -0.069769
  569       -0.069736
  570       -0.069716
  571       -0.069650
  572       -0.069645
  573       -0.069607
  574        0.078617
  575        0.078618
  576        0.078621
  577        0.078622
  578        0.127900
  579        0.127903
  580        0.127912
  581        0.127915
  582        0.128040
  583        0.128043
  584        0.128051
  585        0.128053
  586        0.128086
  587        0.128089
  588        0.128108
  589        0.128111
  590        0.143669
  591        0.143669
  592        0.143675
  593        0.143675
  594        0.249875
  595        0.249876
  596        0.249884
  597        0.249884
  598        0.249905
  599        0.249906
  600        0.249910
  601        0.249910
  602        0.249935
  603        0.249935
  604        0.249943
  605        0.249943
  606        0.311209
  607        0.311215
  608        0.311415
  609        0.311419
  610        0.318721
  611        0.318736
  612        0.415515
  613        0.415517
  614        0.415523
  615        0.415525
  616        0.436923
  617        0.436926
  618        0.460108
  619        0.460109
  620        0.460131
  621        0.460132
  622        0.460135
  623        0.460138
  624        0.612898
  625        0.662086
  626        0.662087
  627        0.662118
  628        0.662118
  629        0.662127
  630        0.662128
  631        0.662157
  632        0.662158
  633        0.662192
  634        0.662193
  635        0.662247
  636        0.662249
  637        0.728086
  638        0.728091
  639        0.728147
  640        0.728162
  641        0.728177
  642        0.728253
  643        0.730295
  644        0.730296
  645        0.752551
  646        0.752559
  647        0.796657
  648        0.796657
  649        6.740176
  650        7.687818
  651        7.687820
  652        8.062478
  653        8.062549
  654        8.062571
  655        8.062675
  656        8.062828
  657        8.062845
  658        8.747818
  659        8.747820
  660        8.747890
  661        8.747891
  662        8.747894
  663        8.747896
  664        8.748007
  665        8.748009
  666        8.748146
  667        8.748148
  668        8.748150
  669        8.748152
  670        9.465055
  671        9.465055
  672        9.551317
  673        9.551320
  674        9.552033
  675        9.552034
  676        9.552755
  677        9.552786
  678        9.873516
  679        9.873516
  680        9.873537
  681        9.873537
  682        9.906609
  683        9.906651
  684        9.906771
  685        9.906829
  686        9.906868
  687        9.906941
  688        9.940639
  689        9.940640
  690        9.940645
  691        9.940646
  692       10.006409
  693       10.006874
  694       10.131455
  695       10.131455
  696       10.131469
  697       10.131470
  698       10.131580
  699       10.131580
  700       10.131581
  701       10.131581
  702       10.131685
  703       10.131686
  704       10.131714
  705       10.131714
  706       10.202428
  707       10.202434
  708       10.302012
  709       10.302574
  710       10.343254
  711       10.343255
  712       10.343275
  713       10.343276
  714       10.343373
  715       10.343374
  716       10.343416
  717       10.343416
  718       10.343534
  719       10.343535
  720       10.343541
  721       10.343541
  722       10.389610
  723       10.389610
  724       10.489660
  725       10.489688
  726       10.489706
  727       10.489745
  728       10.489805
  729       10.489874
  730       10.507942
  731       10.507957
  732       10.542340
  733       10.542346
  734       10.542400
  735       10.542423
  736       10.542664
  737       10.542675
  738       10.542718
  739       10.542722
  740       10.542839
  741       10.542854
  742       10.542939
  743       10.542951
  744       10.570481
  745       10.570496
  746       10.570500
  747       10.570520
  748       10.570536
  749       10.570638
  750       10.623443
  751       10.623447
  752       10.623459
  753       10.623482
  754       10.772603
  755       10.772623
  756       10.772664
  757       10.772698
  758       10.772733
  759       10.772740
  760       10.772762
  761       10.772796
  762       10.772835
  763       10.772871
  764       10.773158
  765       10.774337
  766       10.825787
  767       10.825848
  768       10.826334
  769       10.827816
  770       10.890516
  771       10.890676
  772       10.890905
  773       10.891122
  774       10.891735
  775       10.895821
  776       11.000401
  777       11.003301
  778       11.016572
  779       11.024441
  780       11.064656
  781       11.066422
  782       11.069784
  783       11.077977
  784       11.121367
 
  0.1666667E+00  0.1911098E-16 -0.4904116E-24  0.2777778E-01
    1      -18.815147
    2      -18.617025
    3      -18.608589
    4      -18.608587
    5      -18.571623
    6      -18.571615
    7      -18.488866
    8      -18.488852
    9      -18.457965
   10      -18.457962
   11      -18.454484
   12      -18.428248
   13      -18.428247
   14      -18.428234
   15      -18.428232
   16      -18.380439
   17      -18.380439
   18      -18.380415
   19      -18.380412
   20      -18.363107
   21      -18.363104
   22      -18.284406
   23      -18.284403
   24      -18.284395
   25      -18.284391
   26      -18.202162
   27      -18.202135
   28      -18.042546
   29      -18.042546
   30      -18.031260
   31      -18.031230
   32      -17.978996
   33      -17.978995
   34      -17.962608
   35      -17.962607
   36      -17.962593
   37      -17.962590
   38      -17.930358
   39      -17.930356
   40      -17.930331
   41      -17.930327
   42      -17.916006
   43      -17.916004
   44      -17.812217
   45      -17.812216
   46      -17.812203
   47      -17.812201
   48      -17.772909
   49      -17.729747
   50      -17.729729
   51      -17.627179
   52      -17.627173
   53      -17.570395
   54      -17.438304
   55      -17.438302
   56      -17.438294
   57      -17.438293
   58      -17.311522
   59      -17.311513
   60      -17.301178
   61      -17.288073
   62      -17.279394
   63      -17.279365
   64      -17.278234
   65      -17.277701
   66      -17.277667
   67      -17.274139
   68      -17.231785
   69      -17.231783
   70      -17.193225
   71      -17.193223
   72      -17.193187
   73      -17.193184
   74      -17.092422
   75      -17.092420
   76      -17.092392
   77      -17.092390
   78      -17.032133
   79      -17.032131
   80      -16.714098
   81      -16.714097
   82      -16.665351
   83      -16.665348
   84      -16.665341
   85      -16.665338
   86      -16.658299
   87      -16.657831
   88      -16.657829
   89      -16.656376
   90      -16.656374
   91      -16.656350
   92      -16.656346
   93      -16.655037
   94      -16.655036
   95      -16.655031
   96      -16.655029
   97      -16.653223
   98      -16.652732
   99      -16.652725
  100      -16.652041
  101      -16.652039
  102      -16.652016
  103      -16.652012
  104      -16.651813
  105      -16.651605
  106      -16.651591
  107      -16.648428
  108      -16.648293
  109      -16.648290
  110      -16.648189
  111      -16.648186
  112      -16.648184
  113      -16.648166
  114      -16.647758
  115      -16.647758
  116      -16.647691
  117      -16.647687
  118      -16.646475
  119      -16.646413
  120      -16.644438
  121      -16.644437
  122      -16.644378
  123      -16.644374
  124      -16.643303
  125      -16.643249
  126      -16.642335
  127      -16.642332
  128      -16.642285
  129      -16.642281
  130      -16.640912
  131      -16.640883
  132      -16.640278
  133      -16.639106
  134      -16.639078
  135      -16.638269
  136      -16.637887
  137      -16.637886
  138      -16.637879
  139      -16.637878
  140      -16.636458
  141      -16.636425
  142      -16.633609
  143      -16.633575
  144      -16.632071
  145      -16.629411
  146      -16.629408
  147      -16.628282
  148      -16.628280
  149      -16.628275
  150      -16.628273
  151      -16.626453
  152      -16.626452
  153      -16.625643
  154      -16.625641
  155      -16.625630
  156      -16.625628
  157      -16.623790
  158      -16.623787
  159      -16.623637
  160      -16.623634
  161      -16.621576
  162      -16.621155
  163       -8.861928
  164       -8.861925
  165       -8.368478
  166       -8.368475
  167       -8.267280
  168       -8.267278
  169       -8.267273
  170       -8.267270
  171       -8.094907
  172       -8.094906
  173       -8.094893
  174       -8.094890
  175       -8.072060
  176       -8.072058
  177       -8.027068
  178       -8.027065
  179       -7.978430
  180       -7.974620
  181       -7.974611
  182       -7.949489
  183       -7.949482
  184       -7.929567
  185       -7.831871
  186       -7.803857
  187       -7.698860
  188       -7.698859
  189       -7.698850
  190       -7.698847
  191       -7.341425
  192       -7.241728
  193       -7.241715
  194       -7.084809
  195       -7.084790
  196       -7.038121
  197       -6.768694
  198       -6.768693
  199       -6.768683
  200       -6.768682
  201       -6.745228
  202       -6.745226
  203       -6.700415
  204       -6.700414
  205       -6.700409
  206       -6.700407
  207       -6.614264
  208       -6.614263
  209       -6.614261
  210       -6.614261
  211       -6.570476
  212       -6.570474
  213       -6.379247
  214       -6.379221
  215       -6.342800
  216       -6.342800
  217       -6.124996
  218       -6.124993
  219       -6.124989
  220       -6.124986
  221       -5.939064
  222       -5.939030
  223       -5.781666
  224       -5.781665
  225       -5.769882
  226       -5.769881
  227       -5.769841
  228       -5.769839
  229       -5.695368
  230       -5.695367
  231       -5.695333
  232       -5.695331
  233       -5.637741
  234       -5.637740
  235       -5.233844
  236       -5.233843
  237       -5.178912
  238       -5.178860
  239       -5.153341
  240       -5.139096
  241       -5.139094
  242       -5.097793
  243       -5.097781
  244       -5.051776
  245       -5.040901
  246       -5.031382
  247       -5.013223
  248       -5.013222
  249       -4.981137
  250       -4.981104
  251       -4.975048
  252       -4.975046
  253       -4.948586
  254       -4.948526
  255       -4.948512
  256       -4.948512
  257       -4.948477
  258       -4.948475
  259       -4.946113
  260       -4.915920
  261       -4.915920
  262       -4.915883
  263       -4.915881
  264       -4.909522
  265       -4.909520
  266       -4.871146
  267       -4.869884
  268       -4.869843
  269       -4.868187
  270       -4.868148
  271       -4.865243
  272       -4.850762
  273       -4.850744
  274       -4.841267
  275       -4.841250
  276       -4.826885
  277       -4.826885
  278       -4.826880
  279       -4.826879
  280       -4.755724
  281       -4.647455
  282       -4.593602
  283       -4.593601
  284       -4.590644
  285       -4.545054
  286       -4.545054
  287       -4.545047
  288       -4.545045
  289       -4.473125
  290       -4.473124
  291       -4.473116
  292       -4.473115
  293       -4.447353
  294       -4.447352
  295       -4.441251
  296       -4.441249
  297       -4.441244
  298       -4.441242
  299       -4.296348
  300       -4.296346
  301       -4.278557
  302       -4.278555
  303       -4.278544
  304       -4.278543
  305       -4.274608
  306       -4.274607
  307       -4.274607
  308       -4.274606
  309       -4.230317
  310       -4.230314
  311       -4.230307
  312       -4.230305
  313       -4.205404
  314       -4.198466
  315       -4.198463
  316       -4.147279
  317       -4.147253
  318       -4.056241
  319       -4.056208
  320       -4.024570
  321       -4.013390
  322       -4.013387
  323       -3.866765
  324       -3.866756
  325       -2.534487
  326       -2.534484
  327       -2.534483
  328       -2.534480
  329       -2.501811
  330       -2.501810
  331       -2.495025
  332       -2.495024
  333       -2.495023
  334       -2.495023
  335       -2.466400
  336       -2.466400
  337       -2.466395
  338       -2.466394
  339       -2.452953
  340       -2.452937
  341       -2.451265
  342       -2.448578
  343       -2.448570
  344       -2.442556
  345       -2.442556
  346       -2.440128
  347       -2.365572
  348       -2.365571
  349       -2.348219
  350       -2.348125
  351       -2.323824
  352       -2.323823
  353       -2.323786
  354       -2.323785
  355       -2.301442
  356       -2.301339
  357       -2.259107
  358       -2.259105
  359       -2.259033
  360       -2.259031
  361       -2.238462
  362       -2.238461
  363       -2.238446
  364       -2.238445
  365       -2.225381
  366       -2.220840
  367       -2.210717
  368       -2.206392
  369       -2.206390
  370       -2.200879
  371       -2.200878
  372       -2.190476
  373       -2.190476
  374       -2.183736
  375       -2.183693
  376       -2.171911
  377       -2.171217
  378       -2.099071
  379       -2.099068
  380       -2.098977
  381       -2.098974
  382       -2.016314
  383       -2.016312
  384       -2.011359
  385       -2.011330
  386       -1.972576
  387       -1.916866
  388       -1.916848
  389       -1.890742
  390       -1.890739
  391       -1.852393
  392       -1.852390
  393       -1.852269
  394       -1.852267
  395       -1.842136
  396       -1.842134
  397       -1.841095
  398       -1.841057
  399       -1.837517
  400       -1.837515
  401       -1.837424
  402       -1.837422
  403       -1.824257
  404       -1.824255
  405       -1.801792
  406       -1.790149
  407       -1.779474
  408       -1.734935
  409       -1.734758
  410       -1.693354
  411       -1.693353
  412       -1.676144
  413       -1.676142
  414       -1.676098
  415       -1.676097
  416       -1.626352
  417       -1.626184
  418       -1.622151
  419       -1.622150
  420       -1.622115
  421       -1.622112
  422       -1.604236
  423       -1.604236
  424       -1.550516
  425       -1.543757
  426       -1.543756
  427       -1.501781
  428       -1.501779
  429       -1.485836
  430       -1.485835
  431       -1.485258
  432       -1.485257
  433       -1.485232
  434       -1.485229
  435       -1.479084
  436       -1.479082
  437       -1.479031
  438       -1.479029
  439       -1.477492
  440       -1.477487
  441       -1.457295
  442       -1.457294
  443       -1.417224
  444       -1.407463
  445       -1.407460
  446       -1.407337
  447       -1.407334
  448       -1.402931
  449       -1.402887
  450       -1.375390
  451       -1.375348
  452       -1.363552
  453       -1.363471
  454       -1.355191
  455       -1.355189
  456       -1.355095
  457       -1.355093
  458       -1.335495
  459       -1.307588
  460       -1.307585
  461       -1.296938
  462       -1.255601
  463       -1.255537
  464       -1.219773
  465       -1.219771
  466       -1.219716
  467       -1.219714
  468       -1.188181
  469       -1.188137
  470       -1.154173
  471       -1.124511
  472       -1.124510
  473       -1.109331
  474       -1.109331
  475       -1.023684
  476       -1.023681
  477       -1.002021
  478       -0.989069
  479       -0.985931
  480       -0.981466
  481       -0.981465
  482       -0.977908
  483       -0.977738
  484       -0.974257
  485       -0.974181
  486       -0.973476
  487       -0.973159
  488       -0.970131
  489       -0.969884
  490       -0.957674
  491       -0.957671
  492       -0.957527
  493       -0.957526
  494       -0.937420
  495       -0.937418
  496       -0.937366
  497       -0.937364
  498       -0.927052
  499       -0.927052
  500       -0.890300
  501       -0.890299
  502       -0.888231
  503       -0.888229
  504       -0.888072
  505       -0.888070
  506       -0.836990
  507       -0.836989
  508       -0.836889
  509       -0.836889
  510       -0.795499
  511       -0.795498
  512       -0.767473
  513       -0.767255
  514       -0.752503
  515       -0.752502
  516       -0.685651
  517       -0.685649
  518       -0.685620
  519       -0.685618
  520       -0.643420
  521       -0.643419
  522       -0.643381
  523       -0.643380
  524       -0.615984
  525       -0.615849
  526       -0.597291
  527       -0.597289
  528       -0.597184
  529       -0.597182
  530       -0.572675
  531       -0.572674
  532       -0.490979
  533       -0.490910
  534       -0.469080
  535       -0.469005
  536       -0.455390
  537       -0.421757
  538       -0.400226
  539       -0.400226
  540       -0.400213
  541       -0.400212
  542       -0.312921
  543       -0.312918
  544       -0.299020
  545       -0.259808
  546       -0.259684
  547       -0.258690
  548       -0.246885
  549       -0.246885
  550       -0.246873
  551       -0.246872
  552       -0.244834
  553       -0.244660
  554       -0.243136
  555       -0.235491
  556       -0.218667
  557       -0.204371
  558       -0.204370
  559       -0.161168
  560       -0.161167
  561       -0.161048
  562       -0.161047
  563       -0.151963
  564       -0.151865
  565       -0.133781