 243 243   0   0
  0.1311381E+02  0.1499190E-08  0.1499190E-08  0.1637160E-08  0.5000000E-15
  1.000000000000000E-004
  CAR 
 (Si O2)81  (P1) ~ Ciellie_MCM41 (MD     
     12.80548015    -20.33062096  301      1.11119780      1.00000000
    -20.331  0.0000E+00  0.0000E+00
    -20.220  0.0000E+00  0.0000E+00
    -20.110  0.0000E+00  0.0000E+00
    -19.999  0.0000E+00  0.0000E+00
    -19.889  0.0000E+00  0.0000E+00
    -19.778  0.0000E+00  0.0000E+00
    -19.668  0.0000E+00  0.0000E+00
    -19.557  0.0000E+00  0.0000E+00
    -19.447  0.0000E+00  0.0000E+00
    -19.337  0.0000E+00  0.0000E+00
    -19.226  0.0000E+00  0.0000E+00
    -19.116  0.7446E-16  0.8224E-17
    -19.005  0.1136E-06  0.1255E-07
    -18.895  0.2748E-01  0.3035E-02
    -18.784  0.6473E+01  0.7180E+00
    -18.674  0.3236E+02  0.4292E+01
    -18.563  0.5355E+02  0.1021E+02
    -18.453  0.7548E+02  0.1854E+02
    -18.342  0.1593E+03  0.3614E+02
    -18.232  0.1621E+03  0.5404E+02
    -18.122  0.2897E+02  0.5724E+02
    -18.011  0.4079E+02  0.6174E+02
    -17.901  0.1209E+03  0.7510E+02
    -17.790  0.1810E+03  0.9509E+02
    -17.680  0.5619E+02  0.1013E+03
    -17.569  0.3730E+02  0.1054E+03
    -17.459  0.2131E+02  0.1078E+03
    -17.348  0.6766E+02  0.1152E+03
    -17.238  0.2026E+03  0.1376E+03
    -17.127  0.8563E+02  0.1471E+03
    -17.017  0.5717E+02  0.1534E+03
    -16.907  0.3042E+02  0.1568E+03
    -16.796  0.2834E+02  0.1599E+03
    -16.686  0.1996E+03  0.1819E+03
    -16.575  0.1234E+04  0.3182E+03
    -16.465  0.5272E+02  0.3240E+03
    -16.354  0.1541E-02  0.3240E+03
    -16.244  0.9014E-11  0.3240E+03
    -16.133  0.0000E+00  0.3240E+03
    -16.023  0.0000E+00  0.3240E+03
    -15.912  0.0000E+00  0.3240E+03
    -15.802  0.0000E+00  0.3240E+03
    -15.692  0.0000E+00  0.3240E+03
    -15.581  0.0000E+00  0.3240E+03
    -15.471  0.0000E+00  0.3240E+03
    -15.360  0.0000E+00  0.3240E+03
    -15.250  0.0000E+00  0.3240E+03
    -15.139  0.0000E+00  0.3240E+03
    -15.029  0.0000E+00  0.3240E+03
    -14.918  0.0000E+00  0.3240E+03
    -14.808  0.0000E+00  0.3240E+03
    -14.697  0.0000E+00  0.3240E+03
    -14.587  0.0000E+00  0.3240E+03
    -14.477  0.0000E+00  0.3240E+03
    -14.366  0.0000E+00  0.3240E+03
    -14.256  0.0000E+00  0.3240E+03
    -14.145  0.0000E+00  0.3240E+03
    -14.035  0.0000E+00  0.3240E+03
    -13.924  0.0000E+00  0.3240E+03
    -13.814  0.0000E+00  0.3240E+03
    -13.703  0.0000E+00  0.3240E+03
    -13.593  0.0000E+00  0.3240E+03
    -13.482  0.0000E+00  0.3240E+03
    -13.372  0.0000E+00  0.3240E+03
    -13.262  0.0000E+00  0.3240E+03
    -13.151  0.0000E+00  0.3240E+03
    -13.041  0.0000E+00  0.3240E+03
    -12.930  0.0000E+00  0.3240E+03
    -12.820  0.0000E+00  0.3240E+03
    -12.709  0.0000E+00  0.3240E+03
    -12.599  0.0000E+00  0.3240E+03
    -12.488  0.0000E+00  0.3240E+03
    -12.378  0.0000E+00  0.3240E+03
    -12.268  0.0000E+00  0.3240E+03
    -12.157  0.0000E+00  0.3240E+03
    -12.047  0.0000E+00  0.3240E+03
    -11.936  0.0000E+00  0.3240E+03
    -11.826  0.0000E+00  0.3240E+03
    -11.715  0.0000E+00  0.3240E+03
    -11.605  0.0000E+00  0.3240E+03
    -11.494  0.0000E+00  0.3240E+03
    -11.384  0.0000E+00  0.3240E+03
    -11.273  0.0000E+00  0.3240E+03
    -11.163  0.0000E+00  0.3240E+03
    -11.053  0.0000E+00  0.3240E+03
    -10.942  0.0000E+00  0.3240E+03
    -10.832  0.0000E+00  0.3240E+03
    -10.721  0.0000E+00  0.3240E+03
    -10.611  0.0000E+00  0.3240E+03
    -10.500  0.0000E+00  0.3240E+03
    -10.390  0.0000E+00  0.3240E+03
    -10.279  0.0000E+00  0.3240E+03
    -10.169  0.0000E+00  0.3240E+03
    -10.058  0.0000E+00  0.3240E+03
     -9.948  0.0000E+00  0.3240E+03
     -9.838  0.0000E+00  0.3240E+03
     -9.727  0.0000E+00  0.3240E+03
     -9.617  0.0000E+00  0.3240E+03
     -9.506  0.0000E+00  0.3240E+03
     -9.396  0.0000E+00  0.3240E+03
     -9.285  0.6291E-13  0.3240E+03
     -9.175  0.1022E-04  0.3240E+03
     -9.064  0.1542E+00  0.3240E+03
     -8.954  0.2493E+01  0.3243E+03
     -8.843  0.8385E+01  0.3252E+03
     -8.733  0.1072E+02  0.3264E+03
     -8.623  0.1464E+02  0.3280E+03
     -8.512  0.2078E+02  0.3303E+03
     -8.402  0.1309E+02  0.3318E+03
     -8.291  0.3472E+02  0.3356E+03
     -8.181  0.3440E+02  0.3394E+03
     -8.070  0.4277E+02  0.3441E+03
     -7.960  0.1643E+03  0.3623E+03
     -7.849  0.8335E+02  0.3715E+03
     -7.739  0.3313E+02  0.3751E+03
     -7.628  0.2237E+02  0.3776E+03
     -7.518  0.1038E+02  0.3788E+03
     -7.408  0.4329E+01  0.3792E+03
     -7.297  0.1528E+02  0.3809E+03
     -7.187  0.2333E+02  0.3835E+03
     -7.076  0.2333E+02  0.3861E+03
     -6.966  0.1113E+02  0.3873E+03
     -6.855  0.1065E+03  0.3991E+03
     -6.745  0.1033E+03  0.4105E+03
     -6.634  0.6008E+02  0.4171E+03
     -6.524  0.5387E+02  0.4231E+03
     -6.413  0.2561E+02  0.4259E+03
     -6.303  0.2235E+02  0.4284E+03
     -6.193  0.9526E+01  0.4294E+03
     -6.082  0.3811E+02  0.4336E+03
     -5.972  0.5100E+02  0.4392E+03
     -5.861  0.7413E+02  0.4474E+03
     -5.751  0.5418E+02  0.4534E+03
     -5.640  0.6084E+02  0.4601E+03
     -5.530  0.3815E+02  0.4644E+03
     -5.419  0.5804E+02  0.4708E+03
     -5.309  0.3638E+02  0.4748E+03
     -5.198  0.3861E+02  0.4790E+03
     -5.088  0.5486E+02  0.4851E+03
     -4.978  0.1843E+03  0.5055E+03
     -4.867  0.2330E+03  0.5312E+03
     -4.757  0.1474E+03  0.5475E+03
     -4.646  0.1572E+03  0.5648E+03
     -4.536  0.1270E+03  0.5789E+03
     -4.425  0.1232E+03  0.5925E+03
     -4.315  0.9552E+02  0.6030E+03
     -4.204  0.1528E+03  0.6199E+03
     -4.094  0.1173E+03  0.6329E+03
     -3.983  0.8556E+02  0.6423E+03
     -3.873  0.4730E+02  0.6475E+03
     -3.763  0.4160E+01  0.6480E+03
     -3.652  0.6509E-02  0.6480E+03
     -3.542  0.6194E-08  0.6480E+03
     -3.431  0.0000E+00  0.6480E+03
     -3.321  0.0000E+00  0.6480E+03
     -3.210  0.0000E+00  0.6480E+03
     -3.100  0.0000E+00  0.6480E+03
     -2.989  0.0000E+00  0.6480E+03
     -2.879  0.0000E+00  0.6480E+03
     -2.768  0.7093E-08  0.6480E+03
     -2.658  0.2363E-01  0.6480E+03
     -2.548  0.2918E+02  0.6512E+03
     -2.437  0.2720E+03  0.6813E+03
     -2.327  0.2525E+03  0.7092E+03
     -2.216  0.2176E+03  0.7332E+03
     -2.106  0.1712E+03  0.7521E+03
     -1.995  0.1332E+03  0.7668E+03
     -1.885  0.1875E+03  0.7875E+03
     -1.774  0.1957E+03  0.8091E+03
     -1.664  0.1555E+03  0.8263E+03
     -1.553  0.2130E+03  0.8498E+03
     -1.443  0.2944E+03  0.8824E+03
     -1.333  0.2879E+03  0.9142E+03
     -1.222  0.1166E+03  0.9270E+03
     -1.112  0.1220E+03  0.9405E+03
     -1.001  0.2254E+03  0.9654E+03
     -0.891  0.3218E+03  0.1001E+04
     -0.780  0.1808E+03  0.1021E+04
     -0.670  0.1332E+03  0.1036E+04
     -0.559  0.1832E+03  0.1056E+04
     -0.449  0.1784E+03  0.1076E+04
     -0.339  0.1087E+03  0.1088E+04
     -0.228  0.1662E+03  0.1106E+04
     -0.118  0.1951E+03  0.1127E+04
     -0.007  0.1809E+03  0.1147E+04
      0.103  0.1909E+03  0.1169E+04
      0.214  0.1539E+03  0.1186E+04
      0.324  0.1837E+03  0.1206E+04
      0.435  0.2050E+03  0.1228E+04
      0.545  0.1736E+03  0.1248E+04
      0.656  0.1465E+03  0.1264E+04
      0.766  0.2305E+03  0.1289E+04
      0.876  0.6051E+02  0.1296E+04
      0.987  0.3034E+00  0.1296E+04
      1.097  0.1619E-05  0.1296E+04
      1.208  0.1489E-14  0.1296E+04
      1.318  0.0000E+00  0.1296E+04
      1.429  0.0000E+00  0.1296E+04
      1.539  0.0000E+00  0.1296E+04
      1.650  0.0000E+00  0.1296E+04
      1.760  0.0000E+00  0.1296E+04
      1.871  0.0000E+00  0.1296E+04
      1.981  0.0000E+00  0.1296E+04
      2.091  0.0000E+00  0.1296E+04
      2.202  0.0000E+00  0.1296E+04
      2.312  0.0000E+00  0.1296E+04
      2.423  0.0000E+00  0.1296E+04
      2.533  0.0000E+00  0.1296E+04
      2.644  0.0000E+00  0.1296E+04
      2.754  0.0000E+00  0.1296E+04
      2.865  0.0000E+00  0.1296E+04
      2.975  0.0000E+00  0.1296E+04
      3.086  0.0000E+00  0.1296E+04
      3.196  0.0000E+00  0.1296E+04
      3.306  0.0000E+00  0.1296E+04
      3.417  0.0000E+00  0.1296E+04
      3.527  0.0000E+00  0.1296E+04
      3.638  0.0000E+00  0.1296E+04
      3.748  0.0000E+00  0.1296E+04
      3.859  0.0000E+00  0.1296E+04
      3.969  0.0000E+00  0.1296E+04
      4.080  0.0000E+00  0.1296E+04
      4.190  0.0000E+00  0.1296E+04
      4.301  0.0000E+00  0.1296E+04
      4.411  0.0000E+00  0.1296E+04
      4.521  0.0000E+00  0.1296E+04
      4.632  0.0000E+00  0.1296E+04
      4.742  0.0000E+00  0.1296E+04
      4.853  0.0000E+00  0.1296E+04
      4.963  0.0000E+00  0.1296E+04
      5.074  0.0000E+00  0.1296E+04
      5.184  0.0000E+00  0.1296E+04
      5.295  0.0000E+00  0.1296E+04
      5.405  0.0000E+00  0.1296E+04
      5.516  0.0000E+00  0.1296E+04
      5.626  0.0000E+00  0.1296E+04
      5.736  0.0000E+00  0.1296E+04
      5.847  0.0000E+00  0.1296E+04
      5.957  0.0000E+00  0.1296E+04
      6.068  0.0000E+00  0.1296E+04
      6.178  0.0000E+00  0.1296E+04
      6.289  0.0000E+00  0.1296E+04
      6.399  0.0000E+00  0.1296E+04
      6.510  0.2342E-10  0.1296E+04
      6.620  0.2285E-03  0.1296E+04
      6.731  0.2632E+00  0.1296E+04
      6.841  0.8909E+00  0.1296E+04
      6.951  0.4244E+01  0.1297E+04
      7.062  0.7212E+01  0.1297E+04
      7.172  0.1953E+01  0.1298E+04
      7.283  0.4671E+01  0.1298E+04
      7.393  0.1624E+02  0.1300E+04
      7.504  0.8545E+01  0.1301E+04
      7.614  0.5563E+01  0.1301E+04
      7.725  0.7786E+01  0.1302E+04
      7.835  0.1743E+02  0.1304E+04
      7.946  0.1980E+02  0.1306E+04
      8.056  0.6240E+01  0.1307E+04
      8.166  0.2502E+02  0.1310E+04
      8.277  0.1604E+02  0.1312E+04
      8.387  0.9055E+01  0.1313E+04
      8.498  0.2201E+02  0.1315E+04
      8.608  0.3799E+02  0.1319E+04
      8.719  0.2315E+02  0.1322E+04
      8.829  0.3635E+02  0.1326E+04
      8.940  0.9596E+01  0.1327E+04
      9.050  0.4182E+02  0.1332E+04
      9.161  0.4669E+02  0.1337E+04
      9.271  0.3326E+02  0.1340E+04
      9.381  0.1991E+02  0.1343E+04
      9.492  0.1786E+02  0.1345E+04
      9.602  0.6315E+02  0.1352E+04
      9.713  0.3581E+02  0.1355E+04
      9.823  0.5906E+02  0.1362E+04
      9.934  0.1301E+03  0.1376E+04
     10.044  0.1702E+03  0.1395E+04
     10.155  0.1254E+03  0.1409E+04
     10.265  0.1279E+03  0.1423E+04
     10.375  0.1396E+03  0.1439E+04
     10.486  0.1503E+03  0.1455E+04
     10.596  0.2665E+03  0.1485E+04
     10.707  0.2035E+03  0.1507E+04
     10.817  0.1553E+03  0.1524E+04
     10.928  0.1251E+03  0.1538E+04
     11.038  0.8935E+02  0.1548E+04
     11.149  0.1157E+03  0.1561E+04
     11.259  0.6066E+02  0.1567E+04
     11.370  0.5313E+01  0.1568E+04
     11.480  0.3399E-01  0.1568E+04
     11.590  0.2140E-06  0.1568E+04
     11.701  0.0000E+00  0.1568E+04
     11.811  0.0000E+00  0.1568E+04
     11.922  0.0000E+00  0.1568E+04
     12.032  0.0000E+00  0.1568E+04
     12.143  0.0000E+00  0.1568E+04
     12.253  0.0000E+00  0.1568E+04
     12.364  0.0000E+00  0.1568E+04
     12.474  0.0000E+00  0.1568E+04
     12.585  0.0000E+00  0.1568E+04
     12.695  0.0000E+00  0.1568E+04
     12.805  0.0000E+00  0.1568E+04
