  243  243    1    1
  0.1311381E+02  0.1499190E-08  0.1499190E-08  0.1637160E-08  0.5000000E-15
  1.000000000000000E-004
  CAR 
 (Si O2)81  (P1) ~ Ciellie_MCM41 (MD     
   1296      6    784
 
  0.0000000E+00  0.0000000E+00  0.0000000E+00  0.3703704E-01
    1      -18.824435
    2      -18.615609
    3      -18.615607
    4      -18.536823
    5      -18.536815
    6      -18.536765
    7      -18.536647
    8      -18.536595
    9      -18.536588
   10      -18.407088
   11      -18.407087
   12      -18.407044
   13      -18.407042
   14      -18.407009
   15      -18.407007
   16      -18.406918
   17      -18.406916
   18      -18.406883
   19      -18.406881
   20      -18.406835
   21      -18.406834
   22      -18.279484
   23      -18.279482
   24      -18.279481
   25      -18.279479
   26      -18.116343
   27      -18.116341
   28      -18.116309
   29      -18.116307
   30      -18.045027
   31      -18.045026
   32      -17.949319
   33      -17.949319
   34      -17.949268
   35      -17.949267
   36      -17.949196
   37      -17.949194
   38      -17.949185
   39      -17.949183
   40      -17.949115
   41      -17.949114
   42      -17.949061
   43      -17.949060
   44      -17.799742
   45      -17.799742
   46      -17.799740
   47      -17.799740
   48      -17.672601
   49      -17.672597
   50      -17.672585
   51      -17.672327
   52      -17.672323
   53      -17.672312
   54      -17.457533
   55      -17.457532
   56      -17.457530
   57      -17.457529
   58      -17.313541
   59      -17.313537
   60      -17.288641
   61      -17.288595
   62      -17.275983
   63      -17.275871
   64      -17.275847
   65      -17.275755
   66      -17.275736
   67      -17.275627
   68      -17.136326
   69      -17.136325
   70      -17.136325
   71      -17.136324
   72      -17.136268
   73      -17.136266
   74      -17.136263
   75      -17.136261
   76      -17.136206
   77      -17.136206
   78      -17.136205
   79      -17.136204
   80      -16.692151
   81      -16.692149
   82      -16.666304
   83      -16.666302
   84      -16.666302
   85      -16.666299
   86      -16.658507
   87      -16.654964
   88      -16.654964
   89      -16.654949
   90      -16.654949
   91      -16.653503
   92      -16.653501
   93      -16.653455
   94      -16.653453
   95      -16.653375
   96      -16.653372
   97      -16.653313
   98      -16.653311
   99      -16.653230
  100      -16.653229
  101      -16.653168
  102      -16.653166
  103      -16.651890
  104      -16.651886
  105      -16.651884
  106      -16.651823
  107      -16.651820
  108      -16.651816
  109      -16.647254
  110      -16.647250
  111      -16.646829
  112      -16.646827
  113      -16.645726
  114      -16.645724
  115      -16.645701
  116      -16.645699
  117      -16.645687
  118      -16.645685
  119      -16.645651
  120      -16.645649
  121      -16.645629
  122      -16.645625
  123      -16.645577
  124      -16.645573
  125      -16.644824
  126      -16.644819
  127      -16.644783
  128      -16.644688
  129      -16.644645
  130      -16.644633
  131      -16.639528
  132      -16.639526
  133      -16.639485
  134      -16.639482
  135      -16.638863
  136      -16.638863
  137      -16.638859
  138      -16.638859
  139      -16.635623
  140      -16.635510
  141      -16.635482
  142      -16.635393
  143      -16.635368
  144      -16.635247
  145      -16.627604
  146      -16.627603
  147      -16.626803
  148      -16.626803
  149      -16.626710
  150      -16.626709
  151      -16.626694
  152      -16.626692
  153      -16.626591
  154      -16.626589
  155      -16.626577
  156      -16.626577
  157      -16.626466
  158      -16.626466
  159      -16.621857
  160      -16.621854
  161      -16.620440
  162      -16.620387
  163       -8.885777
  164       -8.885774
  165       -8.192268
  166       -8.192267
  167       -8.192238
  168       -8.192237
  169       -8.192201
  170       -8.192198
  171       -8.192175
  172       -8.192172
  173       -8.192135
  174       -8.192135
  175       -8.192106
  176       -8.192105
  177       -8.077985
  178       -8.077984
  179       -7.956819
  180       -7.956817
  181       -7.956795
  182       -7.956745
  183       -7.956725
  184       -7.956714
  185       -7.826441
  186       -7.826412
  187       -7.673555
  188       -7.673554
  189       -7.673553
  190       -7.673552
  191       -7.181714
  192       -7.181712
  193       -7.181701
  194       -7.181699
  195       -7.181694
  196       -7.181689
  197       -6.765235
  198       -6.765235
  199       -6.765233
  200       -6.765232
  201       -6.656564
  202       -6.656564
  203       -6.656559
  204       -6.656557
  205       -6.656518
  206       -6.656518
  207       -6.656476
  208       -6.656475
  209       -6.656435
  210       -6.656434
  211       -6.656433
  212       -6.656433
  213       -6.330845
  214       -6.330845
  215       -6.159301
  216       -6.159298
  217       -6.159267
  218       -6.159263
  219       -6.156273
  220       -6.156270
  221       -6.156270
  222       -6.156267
  223       -5.718673
  224       -5.718671
  225       -5.718664
  226       -5.718663
  227       -5.718622
  228       -5.718621
  229       -5.718620
  230       -5.718619
  231       -5.718587
  232       -5.718586
  233       -5.718581
  234       -5.718579
  235       -5.149673
  236       -5.149672
  237       -5.145484
  238       -5.145482
  239       -5.102137
  240       -5.102136
  241       -5.055111
  242       -5.053408
  243       -5.053408
  244       -5.053404
  245       -5.053387
  246       -5.053386
  247       -5.053384
  248       -5.035668
  249       -5.035640
  250       -5.035598
  251       -5.035571
  252       -5.035561
  253       -5.035491
  254       -4.937715
  255       -4.937714
  256       -4.937685
  257       -4.937684
  258       -4.937680
  259       -4.937679
  260       -4.937636
  261       -4.937635
  262       -4.937634
  263       -4.937633
  264       -4.937596
  265       -4.937594
  266       -4.869819
  267       -4.869794
  268       -4.869784
  269       -4.869749
  270       -4.869746
  271       -4.869732
  272       -4.842326
  273       -4.842324
  274       -4.842301
  275       -4.842299
  276       -4.822918
  277       -4.822918
  278       -4.822918
  279       -4.822918
  280       -4.725674
  281       -4.633069
  282       -4.633063
  283       -4.509562
  284       -4.509562
  285       -4.509553
  286       -4.509552
  287       -4.509517
  288       -4.509517
  289       -4.509515
  290       -4.509514
  291       -4.509476
  292       -4.509476
  293       -4.509464
  294       -4.509464
  295       -4.443731
  296       -4.443728
  297       -4.443727
  298       -4.443724
  299       -4.269717
  300       -4.269716
  301       -4.269716
  302       -4.269715
  303       -4.253428
  304       -4.253427
  305       -4.253393
  306       -4.253393
  307       -4.253387
  308       -4.253385
  309       -4.253382
  310       -4.253381
  311       -4.253377
  312       -4.253376
  313       -4.253337
  314       -4.253336
  315       -4.106078
  316       -4.106058
  317       -4.106048
  318       -4.106035
  319       -4.106026
  320       -4.106016
  321       -4.003762
  322       -4.003759
  323       -3.855222
  324       -3.855219
  325       -2.538062
  326       -2.538060
  327       -2.538059
  328       -2.538057
  329       -2.481721
  330       -2.481720
  331       -2.481704
  332       -2.481704
  333       -2.481644
  334       -2.481643
  335       -2.481638
  336       -2.481638
  337       -2.481578
  338       -2.481578
  339       -2.481562
  340       -2.481561
  341       -2.456129
  342       -2.456112
  343       -2.456112
  344       -2.456036
  345       -2.456031
  346       -2.456019
  347       -2.322541
  348       -2.322540
  349       -2.322420
  350       -2.322419
  351       -2.283477
  352       -2.283477
  353       -2.283463
  354       -2.283463
  355       -2.283418
  356       -2.283418
  357       -2.283361
  358       -2.283360
  359       -2.283321
  360       -2.283320
  361       -2.283306
  362       -2.283306
  363       -2.223848
  364       -2.216310
  365       -2.216310
  366       -2.216308
  367       -2.216308
  368       -2.185517
  369       -2.185496
  370       -2.185483
  371       -2.185406
  372       -2.185380
  373       -2.185359
  374       -2.180926
  375       -2.180925
  376       -2.179852
  377       -2.179839
  378       -2.147989
  379       -2.147989
  380       -2.147987
  381       -2.147986
  382       -2.020173
  383       -2.020170
  384       -2.014373
  385       -2.014372
  386       -1.892956
  387       -1.892954
  388       -1.889351
  389       -1.889286
  390       -1.889260
  391       -1.889259
  392       -1.889241
  393       -1.889171
  394       -1.832808
  395       -1.832806
  396       -1.832777
  397       -1.832775
  398       -1.832754
  399       -1.832752
  400       -1.832719
  401       -1.832718
  402       -1.832675
  403       -1.832673
  404       -1.832615
  405       -1.832613
  406       -1.829791
  407       -1.680073
  408       -1.680044
  409       -1.679900
  410       -1.679874
  411       -1.679830
  412       -1.679774
  413       -1.648126
  414       -1.648126
  415       -1.648102
  416       -1.648101
  417       -1.648080
  418       -1.648079
  419       -1.648075
  420       -1.648074
  421       -1.648046
  422       -1.648045
  423       -1.648031
  424       -1.648030
  425       -1.555947
  426       -1.555945
  427       -1.497227
  428       -1.497226
  429       -1.497168
  430       -1.497167
  431       -1.497165
  432       -1.497164
  433       -1.497156
  434       -1.497155
  435       -1.497155
  436       -1.497155
  437       -1.497102
  438       -1.497102
  439       -1.484665
  440       -1.484664
  441       -1.406572
  442       -1.406570
  443       -1.373009
  444       -1.373006
  445       -1.373001
  446       -1.372998
  447       -1.371078
  448       -1.371042
  449       -1.370965
  450       -1.370959
  451       -1.370933
  452       -1.370880
  453       -1.334387
  454       -1.334387
  455       -1.334387
  456       -1.334387
  457       -1.310544
  458       -1.310543
  459       -1.310508
  460       -1.310508
  461       -1.275159
  462       -1.275159
  463       -1.275158
  464       -1.275158
  465       -1.223631
  466       -1.223617
  467       -1.223585
  468       -1.223568
  469       -1.223515
  470       -1.223505
  471       -1.148839
  472       -1.148839
  473       -1.120749
  474       -1.120748
  475       -1.044591
  476       -1.044587
  477       -1.041186
  478       -1.041184
  479       -0.982324
  480       -0.982317
  481       -0.982314
  482       -0.982314
  483       -0.982096
  484       -0.982090
  485       -0.981501
  486       -0.973782
  487       -0.973393
  488       -0.929849
  489       -0.929848
  490       -0.929823
  491       -0.929822
  492       -0.929769
  493       -0.929768
  494       -0.929735
  495       -0.929734
  496       -0.929712
  497       -0.929711
  498       -0.929639
  499       -0.929638
  500       -0.866970
  501       -0.866969
  502       -0.866944
  503       -0.866943
  504       -0.866910
  505       -0.866909
  506       -0.866875
  507       -0.866875
  508       -0.866857
  509       -0.866856
  510       -0.866834
  511       -0.866833
  512       -0.695500
  513       -0.695494
  514       -0.695297
  515       -0.695291
  516       -0.656486
  517       -0.656485
  518       -0.656426
  519       -0.656425
  520       -0.656413
  521       -0.656412
  522       -0.656336
  523       -0.656336
  524       -0.656336
  525       -0.656335
  526       -0.656280
  527       -0.656278
  528       -0.631108
  529       -0.631108
  530       -0.631104
  531       -0.631104
  532       -0.445144
  533       -0.445106
  534       -0.445035
  535       -0.444989
  536       -0.444980
  537       -0.444865
  538       -0.377965
  539       -0.377965
  540       -0.377962
  541       -0.377962
  542       -0.326653
  543       -0.326651
  544       -0.282533
  545       -0.282516
  546       -0.282325
  547       -0.282307
  548       -0.282298
  549       -0.282275
  550       -0.275787
  551       -0.275787
  552       -0.275778
  553       -0.275778
  554       -0.225895
  555       -0.225664
  556       -0.138893
  557       -0.138893
  558       -0.138878
  559       -0.138878
  560       -0.138872
  561       -0.138872
  562       -0.138850
  563       -0.138850
  564       -0.138780
  565       -0.138779
  566       -0.138759
  567       -0.138757
  568       -0.069762
  569       -0.069729
  570       -0.069709
  571       -0.069643
  572       -0.069638
  573       -0.069600
  574        0.078625
  575        0.078625
  576        0.078629
  577        0.078629
  578        0.127908
  579        0.127910
  580        0.127920
  581        0.127923
  582        0.128048
  583        0.128050
  584        0.128058
  585        0.128061
  586        0.128094
  587        0.128096
  588        0.128115
  589        0.128118
  590        0.143676
  591        0.143676
  592        0.143682
  593        0.143682
  594        0.249883
  595        0.249884
  596        0.249892
  597        0.249892
  598        0.249913
  599        0.249914
  600        0.249918
  601        0.249918
  602        0.249943
  603        0.249943
  604        0.249951
  605        0.249951
  606        0.311217
  607        0.311223
  608        0.311423
  609        0.311427
  610        0.318728
  611        0.318744
  612        0.415524
  613        0.415526
  614        0.415531
  615        0.415533
  616        0.436932
  617        0.436935
  618        0.460117
  619        0.460117
  620        0.460140
  621        0.460140
  622        0.460143
  623        0.460146
  624        0.612905
  625        0.662094
  626        0.662095
  627        0.662126
  628        0.662126
  629        0.662135
  630        0.662136
  631        0.662165
  632        0.662166
  633        0.662200
  634        0.662201
  635        0.662255
  636        0.662257
  637        0.728094
  638        0.728099
  639        0.728155
  640        0.728170
  641        0.728186
  642        0.728261
  643        0.730303
  644        0.730304
  645        0.752560
  646        0.752568
  647        0.796665
  648        0.796665
  649        6.740174
  650        7.687816
  651        7.687818
  652        8.062476
  653        8.062547
  654        8.062569
  655        8.062673
  656        8.062826
  657        8.062843
  658        8.747817
  659        8.747818
  660        8.747888
  661        8.747890
  662        8.747893
  663        8.747895
  664        8.748006
  665        8.748008
  666        8.748144
  667        8.748146
  668        8.748149
  669        8.748151
  670        9.465053
  671        9.465053
  672        9.551312
  673        9.551315
  674        9.552031
  675        9.552032
  676        9.552753
  677        9.552785
  678        9.873512
  679        9.873512
  680        9.873533
  681        9.873533
  682        9.906608
  683        9.906650
  684        9.906771
  685        9.906828
  686        9.906867
  687        9.906941
  688        9.940640
  689        9.940641
  690        9.940646
  691        9.940647
  692       10.006406
  693       10.006870
  694       10.131454
  695       10.131455
  696       10.131469
  697       10.131469
  698       10.131580
  699       10.131580
  700       10.131580
  701       10.131581
  702       10.131685
  703       10.131685
  704       10.131713
  705       10.131714
  706       10.202428
  707       10.202434
  708       10.302011
  709       10.302573
  710       10.343251
  711       10.343252
  712       10.343272
  713       10.343273
  714       10.343371
  715       10.343372
  716       10.343413
  717       10.343413
  718       10.343531
  719       10.343532
  720       10.343538
  721       10.343539
  722       10.389609
  723       10.389609
  724       10.489659
  725       10.489687
  726       10.489705
  727       10.489744
  728       10.489803
  729       10.489873
  730       10.507941
  731       10.507956
  732       10.542336
  733       10.542342
  734       10.542396
  735       10.542419
  736       10.542660
  737       10.542671
  738       10.542714
  739       10.542718
  740       10.542836
  741       10.542850
  742       10.542935
  743       10.542947
  744       10.570478
  745       10.570492
  746       10.570497
  747       10.570517
  748       10.570533
  749       10.570635
  750       10.623441
  751       10.623445
  752       10.623457
  753       10.623480
  754       10.772601
  755       10.772621
  756       10.772662
  757       10.772696
  758       10.772731
  759       10.772738
  760       10.772760
  761       10.772794
  762       10.772833
  763       10.772869
  764       10.773156
  765       10.774335
  766       10.825786
  767       10.825846
  768       10.826333
  769       10.827815
  770       10.890512
  771       10.890672
  772       10.890901
  773       10.891118
  774       10.891731
  775       10.895817
  776       11.000400
  777       11.003300
  778       11.016570
  779       11.024440
  780       11.064657
  781       11.066423
  782       11.069785
  783       11.077978
  784       11.121365
 
  0.3333333E+00  0.3624835E-16 -0.1739493E-24  0.2222222E+00
    1      -18.788679
    2      -18.687881
    3      -18.592873
    4      -18.592870
    5      -18.587044
    6      -18.587041
    7      -18.508403
    8      -18.508400
    9      -18.441624
   10      -18.441623
   11      -18.441617
   12      -18.441615
   13      -18.429834
   14      -18.429816
   15      -18.383747
   16      -18.351192
   17      -18.351191
   18      -18.351166
   19      -18.351162
   20      -18.333243
   21      -18.333240
   22      -18.299663
   23      -18.299661
   24      -18.299643
   25      -18.299639
   26      -18.284277
   27      -18.284252
   28      -18.034563
   29      -18.034563
   30      -18.002815
   31      -18.002814
   32      -17.970039
   33      -17.970038
   34      -17.970031
   35      -17.970029
   36      -17.947555
   37      -17.947525
   38      -17.905568
   39      -17.905566
   40      -17.905537
   41      -17.905534
   42      -17.886206
   43      -17.886204
   44      -17.854392
   45      -17.841789
   46      -17.841787
   47      -17.841765
   48      -17.841762
   49      -17.795358
   50      -17.795335
   51      -17.597304
   52      -17.597301
   53      -17.476552
   54      -17.389580
   55      -17.389578
   56      -17.389562
   57      -17.389560
   58      -17.338177
   59      -17.304228
   60      -17.304211
   61      -17.302909
   62      -17.302907
   63      -17.286239
   64      -17.284672
   65      -17.284603
   66      -17.284437
   67      -17.284362
   68      -17.281220
   69      -17.272532
   70      -17.258126
   71      -17.258123
   72      -17.258091
   73      -17.258089
   74      -17.063752
   75      -17.063750
   76      -17.063735
   77      -17.063733
   78      -16.930369
   79      -16.930367
   80      -16.765808
   81      -16.765807
   82      -16.663687
   83      -16.663684
   84      -16.663673
   85      -16.663671
   86      -16.660654
   87      -16.660652
   88      -16.659289
   89      -16.659287
   90      -16.659278
   91      -16.659275
   92      -16.657038
   93      -16.654927
   94      -16.654926
   95      -16.654925
   96      -16.654924
   97      -16.654745
   98      -16.653112
   99      -16.653108
  100      -16.652163
  101      -16.652161
  102      -16.652156
  103      -16.652154
  104      -16.651606
  105      -16.651048
  106      -16.651033
  107      -16.650745
  108      -16.650744
  109      -16.650699
  110      -16.650696
  111      -16.650196
  112      -16.649803
  113      -16.649799
  114      -16.648587
  115      -16.648581
  116      -16.646914
  117      -16.646866
  118      -16.643560
  119      -16.643558
  120      -16.642746
  121      -16.642717
  122      -16.642671
  123      -16.642669
  124      -16.642645
  125      -16.642642
  126      -16.642437
  127      -16.642397
  128      -16.639989
  129      -16.639120
  130      -16.639116
  131      -16.638176
  132      -16.638165
  133      -16.637628
  134      -16.637625
  135      -16.637369
  136      -16.637348
  137      -16.635328
  138      -16.635265
  139      -16.635263
  140      -16.635255
  141      -16.635253
  142      -16.631698
  143      -16.631682
  144      -16.631378
  145      -16.631375
  146      -16.629788
  147      -16.629786
  148      -16.629782
  149      -16.629780
  150      -16.628393
  151      -16.627286
  152      -16.627283
  153      -16.624554
  154      -16.624280
  155      -16.624279
  156      -16.624275
  157      -16.624274
  158      -16.623339
  159      -16.623338
  160      -16.622542
  161      -16.621695
  162      -16.621693
  163       -8.791943
  164       -8.791940
  165       -8.536038
  166       -8.536035
  167       -8.314274
  168       -8.314272
  169       -8.314270
  170       -8.314268
  171       -8.054913
  172       -8.054909
  173       -8.000856
  174       -8.000848
  175       -7.992275
  176       -7.983551
  177       -7.983549
  178       -7.983534
  179       -7.983531
  180       -7.949414
  181       -7.949411
  182       -7.901882
  183       -7.901879
  184       -7.900058
  185       -7.847610
  186       -7.769168
  187       -7.769167
  188       -7.769152
  189       -7.769149
  190       -7.737588
  191       -7.497054
  192       -7.271553
  193       -7.271546
  194       -6.949951
  195       -6.949930
  196       -6.934661
  197       -6.819333
  198       -6.819331
  199       -6.771630
  200       -6.771628
  201       -6.771615
  202       -6.771613
  203       -6.737723
  204       -6.737721
  205       -6.737712
  206       -6.737710
  207       -6.589152
  208       -6.589128
  209       -6.582744
  210       -6.582743
  211       -6.582742
  212       -6.582741
  213       -6.493068
  214       -6.493067
  215       -6.376115
  216       -6.376114
  217       -6.045464
  218       -6.045462
  219       -6.045450
  220       -6.045447
  221       -5.848367
  222       -5.848365
  223       -5.848333
  224       -5.848330
  225       -5.821439
  226       -5.821437
  227       -5.724278
  228       -5.724239
  229       -5.689933
  230       -5.689932
  231       -5.689912
  232       -5.689911
  233       -5.544440
  234       -5.544439
  235       -5.339577
  236       -5.339577
  237       -5.338732
  238       -5.338682
  239       -5.227276
  240       -5.136612
  241       -5.136605
  242       -5.108372
  243       -5.108370
  244       -5.044895
  245       -5.044115
  246       -5.031090
  247       -5.019178
  248       -5.019176
  249       -4.949321
  250       -4.949320
  251       -4.949300
  252       -4.949298
  253       -4.926893
  254       -4.926858
  255       -4.905325
  256       -4.905325
  257       -4.891978
  258       -4.891975
  259       -4.890070
  260       -4.890019
  261       -4.887662
  262       -4.887662
  263       -4.887633
  264       -4.887631
  265       -4.870912
  266       -4.866749
  267       -4.866707
  268       -4.863980
  269       -4.863941
  270       -4.863336
  271       -4.863334
  272       -4.853752
  273       -4.847841
  274       -4.847837
  275       -4.843924
  276       -4.839434
  277       -4.839433
  278       -4.839421
  279       -4.839421
  280       -4.797934
  281       -4.691402
  282       -4.691402
  283       -4.689528
  284       -4.570829
  285       -4.570829
  286       -4.570824
  287       -4.570823
  288       -4.510165
  289       -4.444673
  290       -4.444672
  291       -4.444663
  292       -4.444662
  293       -4.435487
  294       -4.435484
  295       -4.435476
  296       -4.435473
  297       -4.415062
  298       -4.415060
  299       -4.318128
  300       -4.318127
  301       -4.311568
  302       -4.296392
  303       -4.296390
  304       -4.296382
  305       -4.296381
  306       -4.286986
  307       -4.286985
  308       -4.286985
  309       -4.286983
  310       -4.213976
  311       -4.213973
  312       -4.213971
  313       -4.213968
  314       -4.174851
  315       -4.174835
  316       -4.139539
  317       -4.139536
  318       -4.041032
  319       -4.041029
  320       -4.001052
  321       -4.001023
  322       -3.969607
  323       -3.898669
  324       -3.898652
  325       -2.526250
  326       -2.526247
  327       -2.526243
  328       -2.526240
  329       -2.505459
  330       -2.505457
  331       -2.505454
  332       -2.505452
  333       -2.502946
  334       -2.502944
  335       -2.453421
  336       -2.453421
  337       -2.453417
  338       -2.453416
  339       -2.435912
  340       -2.435900
  341       -2.435699
  342       -2.435665
  343       -2.427995
  344       -2.427994
  345       -2.425060
  346       -2.403771
  347       -2.386357
  348       -2.386357
  349       -2.377292
  350       -2.377218
  351       -2.347290
  352       -2.347288
  353       -2.347239
  354       -2.347237
  355       -2.311570
  356       -2.311567
  357       -2.311498
  358       -2.311496
  359       -2.282932
  360       -2.280923
  361       -2.280835
  362       -2.280630
  363       -2.252391
  364       -2.252390
  365       -2.233786
  366       -2.233756
  367       -2.205236
  368       -2.201279
  369       -2.201279
  370       -2.201271
  371       -2.201271
  372       -2.198103
  373       -2.198072
  374       -2.175929
  375       -2.146526
  376       -2.104470
  377       -2.104469
  378       -2.045439
  379       -2.028255
  380       -2.028253
  381       -2.028146
  382       -2.028144
  383       -2.023098
  384       -2.023097
  385       -1.977960
  386       -1.977902
  387       -1.917463
  388       -1.917453
  389       -1.898242
  390       -1.898239
  391       -1.898120
  392       -1.898118
  393       -1.878221
  394       -1.878218
  395       -1.859159
  396       -1.859078
  397       -1.847527
  398       -1.847525
  399       -1.846728
  400       -1.846726
  401       -1.846675
  402       -1.846673
  403       -1.832863
  404       -1.829180
  405       -1.829177
  406       -1.724038
  407       -1.704992
  408       -1.704971
  409       -1.704843
  410       -1.704841
  411       -1.704811
  412       -1.704810
  413       -1.703622
  414       -1.703622
  415       -1.701853
  416       -1.587932
  417       -1.587822
  418       -1.583542
  419       -1.583540
  420       -1.583462
  421       -1.583459
  422       -1.580136
  423       -1.580135
  424       -1.556850
  425       -1.556850
  426       -1.522227
  427       -1.522226
  428       -1.521661
  429       -1.504465
  430       -1.504463
  431       -1.495659
  432       -1.495610
  433       -1.471059
  434       -1.471057
  435       -1.470942
  436       -1.470939
  437       -1.466041
  438       -1.466040
  439       -1.457312
  440       -1.457310
  441       -1.457291
  442       -1.457289
  443       -1.447913
  444       -1.447906
  445       -1.443900
  446       -1.443898
  447       -1.443814
  448       -1.443813
  449       -1.440460
  450       -1.440453
  451       -1.384339
  452       -1.384294
  453       -1.377936
  454       -1.377933
  455       -1.377838
  456       -1.377836
  457       -1.361784
  458       -1.361402
  459       -1.313437
  460       -1.299889
  461       -1.299884
  462       -1.276126
  463       -1.276097
  464       -1.162897
  465       -1.162878
  466       -1.137073
  467       -1.137071
  468       -1.137001
  469       -1.136998
  470       -1.093492
  471       -1.093490
  472       -1.093378
  473       -1.086366
  474       -1.066572
  475       -1.066572
  476       -1.031308
  477       -1.031307
  478       -1.010414
  479       -0.989222
  480       -0.989219
  481       -0.989131
  482       -0.989129
  483       -0.984903
  484       -0.984901
  485       -0.984823
  486       -0.984821
  487       -0.984044
  488       -0.975555
  489       -0.972314
  490       -0.972311
  491       -0.965678
  492       -0.965586
  493       -0.961349
  494       -0.944530
  495       -0.944529
  496       -0.942511
  497       -0.942268
  498       -0.925722
  499       -0.925720
  500       -0.908932
  501       -0.908930
  502       -0.908826
  503       -0.908824
  504       -0.873989
  505       -0.873978
  506       -0.842562
  507       -0.842559
  508       -0.798195
  509       -0.798050
  510       -0.788631
  511       -0.788629
  512       -0.788501
  513       -0.788501
  514       -0.705992
  515       -0.705991
  516       -0.691136
  517       -0.691133
  518       -0.691126
  519       -0.691124
  520       -0.679627
  521       -0.679626
  522       -0.679547
  523       -0.679546
  524       -0.579758
  525       -0.579751
  526       -0.528398
  527       -0.528397
  528       -0.528294
  529       -0.528292
  530       -0.523912
  531       -0.523815
  532       -0.514203
  533       -0.514202
  534       -0.506970
  535       -0.506944
  536       -0.448013
  537       -0.434236
  538       -0.434236
  539       -0.434216
  540       -0.434215
  541       -0.385633
  542       -0.335862
  543       -0.305227
  544       -0.305155
  545       -0.301011
  546       -0.295864
  547       -0.295863
  548       -0.286601
  549       -0.276468
  550       -0.276465
  551       -0.259260
  552       -0.237758
  553       -0.216946
  554       -0.216901
  555       -0.207586
  556       -0.207585
  557       -0.207549
  558       -0.207549
  559       -0.182080
  560       -0.182079
  561       -0.181961
  562       -0.181960
  563       -0.172257
  564       -0.172255
  565       -0.120547