<?xml version="1.0" encoding="ISO-8859-1"?>
<modeling>
 <generator>
  <i name="program" type="string">vasp </i>
  <i name="version" type="string">5.3.5  </i>
  <i name="subversion" type="string">31Mar14 (build Oct 18 2016 11:10:54) complex                          parallel </i>
  <i name="platform" type="string">LinuxIFC </i>
  <i name="date" type="string">2017 10 07 </i>
  <i name="time" type="string">15:13:29 </i>
 </generator>
 <incar>
  <i type="string" name="SYSTEM"> (Si O2)81  (P1) ~ Ciellie_MCM41 (MD</i>
  <i type="string" name="PREC">accurate</i>
  <i type="string" name="ALGO"> Normal (blocked Davidson)</i>
  <i type="int" name="ICHARG">     2</i>
  <i type="int" name="NELMIN">     2</i>
  <i type="int" name="IBRION">    -1</i>
  <i name="EDIFF">      0.00001000</i>
  <i type="int" name="ISIF">     2</i>
  <i name="ENCUT">    400.00000000</i>
  <i type="int" name="NGXF">    98</i>
  <i type="int" name="NGYF">    98</i>
  <i type="int" name="NGZF">   108</i>
  <i type="string" name="LREAL"> Auto</i>
  <i type="int" name="ISMEAR">     0</i>
  <i name="SIGMA">      0.05000000</i>
  <i type="logical" name="LWAVE"> F  </i>
  <i type="logical" name="LCHARG"> F  </i>
 </incar>
 <kpoints>
  <generation param="Gamma">
   <v type="int" name="divisions">       3        3        3 </v>
   <v name="usershift">      0.00000000       0.00000000       0.00000000 </v>
   <v name="genvec1">      0.33333333      -0.00000000       0.00000000 </v>
   <v name="genvec2">      0.00000000       0.33333333       0.00000000 </v>
   <v name="genvec3">      0.00000000       0.00000000       0.33333333 </v>
   <v name="shift">      0.00000000       0.00000000       0.00000000 </v>
  </generation>
  <varray name="kpointlist" >
   <v>       0.00000000       0.00000000       0.00000000 </v>
   <v>       0.33333333       0.00000000      -0.00000000 </v>
   <v>       0.33333333       0.33333333       0.00000000 </v>
   <v>       0.00000000       0.00000000       0.33333333 </v>
   <v>       0.33333333       0.00000000       0.33333333 </v>
   <v>       0.33333333       0.33333333       0.33333333 </v>
  </varray>
  <varray name="weights" >
   <v>       0.03703704 </v>
   <v>       0.22222222 </v>
   <v>       0.07407407 </v>
   <v>       0.07407407 </v>
   <v>       0.44444444 </v>
   <v>       0.14814815 </v>
  </varray>
 </kpoints>
 <parameters>
  <separator name="general" >
   <i type="string" name="SYSTEM">(Si O2)81  (P1) ~ Ciellie_MCM41 (MD</i>
   <i type="logical" name="LCOMPAT"> F  </i>
  </separator>
  <separator name="electronic" >
   <i type="string" name="PREC">accura</i>
   <i name="ENMAX">    400.00000000</i>
   <i name="ENAUG">    605.39200000</i>
   <i name="EDIFF">      0.00001000</i>
   <i type="int" name="IALGO">    38</i>
   <i type="int" name="IWAVPR">    10</i>
   <i type="int" name="NBANDS">   784</i>
   <i name="NELECT">   1296.00000000</i>
   <i type="int" name="TURBO">     0</i>
   <i type="int" name="IRESTART">     0</i>
   <i type="int" name="NREBOOT">     0</i>
   <i type="int" name="NMIN">     0</i>
   <i name="EREF">      0.00000000</i>
   <separator name="electronic smearing" >
    <i type="int" name="ISMEAR">     0</i>
    <i name="SIGMA">      0.05000000</i>
    <i name="KSPACING">      0.50000000</i>
    <i type="logical" name="KGAMMA"> T  </i>
   </separator>
   <separator name="electronic projectors" >
    <i type="logical" name="LREAL"> T  </i>
    <v name="ROPT">     -0.00025000     -0.00025000</v>
    <i type="int" name="LMAXPAW">  -100</i>
    <i type="int" name="LMAXMIX">     2</i>
    <i type="logical" name="NLSPLINE"> F  </i>
   </separator>
   <separator name="electronic startup" >
    <i type="int" name="ISTART">     0</i>
    <i type="int" name="ICHARG">     2</i>
    <i type="int" name="INIWAV">     1</i>
   </separator>
   <separator name="electronic spin" >
    <i type="int" name="ISPIN">     1</i>
    <i type="logical" name="LNONCOLLINEAR"> F  </i>
    <v name="MAGMOM">      1.00000000      1.00000000      1.00000000      1.00000000      1.00000000      1.00000000      1.00000000      1.00000000      1.00000000      1.00000000      1.00000000      1.00000000      1.00000000      1.00000000      1.00000000      1.00000000      1.00000000      1.00000000      1.00000000      1.00000000
      1.00000000      1.00000000      1.00000000      1.00000000      1.00000000      1.00000000      1.00000000      1.00000000      1.00000000      1.00000000      1.00000000      1.00000000      1.00000000      1.00000000      1.00000000      1.00000000      1.00000000      1.00000000      1.00000000      1.00000000
      1.00000000      1.00000000      1.00000000      1.00000000      1.00000000      1.00000000      1.00000000      1.00000000      1.00000000      1.00000000      1.00000000      1.00000000      1.00000000      1.00000000      1.00000000      1.00000000      1.00000000      1.00000000      1.00000000      1.00000000
      1.00000000      1.00000000      1.00000000      1.00000000      1.00000000      1.00000000      1.00000000      1.00000000      1.00000000      1.00000000      1.00000000      1.00000000      1.00000000      1.00000000      1.00000000      1.00000000      1.00000000      1.00000000      1.00000000      1.00000000
      1.00000000      1.00000000      1.00000000      1.00000000      1.00000000      1.00000000      1.00000000      1.00000000      1.00000000      1.00000000      1.00000000      1.00000000      1.00000000      1.00000000      1.00000000      1.00000000      1.00000000      1.00000000      1.00000000      1.00000000
      1.00000000      1.00000000      1.00000000      1.00000000      1.00000000      1.00000000      1.00000000      1.00000000      1.00000000      1.00000000      1.00000000      1.00000000      1.00000000      1.00000000      1.00000000      1.00000000      1.00000000      1.00000000      1.00000000      1.00000000
      1.00000000      1.00000000      1.00000000      1.00000000      1.00000000      1.00000000      1.00000000      1.00000000      1.00000000      1.00000000      1.00000000      1.00000000      1.00000000      1.00000000      1.00000000      1.00000000      1.00000000      1.00000000      1.00000000      1.00000000
      1.00000000      1.00000000      1.00000000      1.00000000      1.00000000      1.00000000      1.00000000      1.00000000      1.00000000      1.00000000      1.00000000      1.00000000      1.00000000      1.00000000      1.00000000      1.00000000      1.00000000      1.00000000      1.00000000      1.00000000
      1.00000000      1.00000000      1.00000000      1.00000000      1.00000000      1.00000000      1.00000000      1.00000000      1.00000000      1.00000000      1.00000000      1.00000000      1.00000000      1.00000000      1.00000000      1.00000000      1.00000000      1.00000000      1.00000000      1.00000000
      1.00000000      1.00000000      1.00000000      1.00000000      1.00000000      1.00000000      1.00000000      1.00000000      1.00000000      1.00000000      1.00000000      1.00000000      1.00000000      1.00000000      1.00000000      1.00000000      1.00000000      1.00000000      1.00000000      1.00000000
      1.00000000      1.00000000      1.00000000      1.00000000      1.00000000      1.00000000      1.00000000      1.00000000      1.00000000      1.00000000      1.00000000      1.00000000      1.00000000      1.00000000      1.00000000      1.00000000      1.00000000      1.00000000      1.00000000      1.00000000
      1.00000000      1.00000000      1.00000000      1.00000000      1.00000000      1.00000000      1.00000000      1.00000000      1.00000000      1.00000000      1.00000000      1.00000000      1.00000000      1.00000000      1.00000000      1.00000000      1.00000000      1.00000000      1.00000000      1.00000000
      1.00000000      1.00000000      1.00000000</v>
    <i name="NUPDOWN">     -1.00000000</i>
    <i type="logical" name="LSORBIT"> F  </i>
    <v name="SAXIS">      0.00000000      0.00000000      1.00000000</v>
    <i type="logical" name="LSPIRAL"> F  </i>
    <v name="QSPIRAL">      0.00000000      0.00000000      0.00000000</v>
    <i type="logical" name="LZEROZ"> F  </i>
   </separator>
   <separator name="electronic exchange-correlation" >
    <i type="logical" name="LASPH"> F  </i>
    <i type="logical" name="LMETAGGA"> F  </i>
   </separator>
   <separator name="electronic convergence" >
    <i type="int" name="NELM">    60</i>
    <i type="int" name="NELMDL">    -5</i>
    <i type="int" name="NELMIN">     2</i>
    <i name="ENINI">    400.00000000</i>
    <separator name="electronic convergence detail" >
     <i type="logical" name="LDIAG"> T  </i>
     <i type="logical" name="LSUBROT"> F  </i>
     <i name="WEIMIN">      0.00000000</i>
     <i name="EBREAK">      0.00000000</i>
     <i name="DEPER">      0.30000000</i>
     <i type="int" name="NRMM">     4</i>
     <i name="TIME">      0.40000000</i>
    </separator>
   </separator>
   <separator name="electronic mixer" >
    <i name="AMIX">      0.40000000</i>
    <i name="BMIX">      1.00000000</i>
    <i name="AMIN">      0.10000000</i>
    <i name="AMIX_MAG">      1.60000000</i>
    <i name="BMIX_MAG">      1.00000000</i>
    <separator name="electronic mixer details" >
     <i type="int" name="IMIX">     4</i>
     <i type="int" name="MAXMIX">   -45</i>
     <i name="WC">    100.00000000</i>
     <i type="int" name="INIMIX">     1</i>
     <i type="int" name="MIXPRE">     1</i>
     <i type="int" name="MREMOVE">     5</i>
    </separator>
   </separator>
   <separator name="electronic dipolcorrection" >
    <i type="logical" name="LDIPOL"> F  </i>
    <i type="logical" name="LMONO"> F  </i>
    <i type="int" name="IDIPOL">     0</i>
    <i name="EPSILON">      1.00000000</i>
    <v name="DIPOL">   -100.00000000   -100.00000000   -100.00000000</v>
    <i name="EFIELD">      0.00000000</i>
   </separator>
  </separator>
  <separator name="grids" >
   <i type="int" name="NGX">    98</i>
   <i type="int" name="NGY">    98</i>
   <i type="int" name="NGZ">   108</i>
   <i type="int" name="NGXF">    98</i>
   <i type="int" name="NGYF">    98</i>
   <i type="int" name="NGZF">   108</i>
   <i type="logical" name="ADDGRID"> F  </i>
  </separator>
  <separator name="ionic" >
   <i type="int" name="NSW">     0</i>
   <i type="int" name="IBRION">    -1</i>
   <i type="int" name="ISIF">     2</i>
   <i name="PSTRESS">      0.00000000</i>
   <i name="EDIFFG">      0.00010000</i>
   <i type="int" name="NFREE">     0</i>
   <i name="POTIM">      0.50000000</i>
   <i name="SMASS">     -3.00000000</i>
   <i name="SCALEE">      1.00000000</i>
  </separator>
  <separator name="ionic md" >
   <i name="TEBEG">      0.00010000</i>
   <i name="TEEND">      0.00010000</i>
   <i type="int" name="NBLOCK">     1</i>
   <i type="int" name="KBLOCK">     1</i>
   <i type="int" name="NPACO">   256</i>
   <i name="APACO">     16.00000000</i>
  </separator>
  <separator name="symmetry" >
   <i type="int" name="ISYM">     2</i>
   <i name="SYMPREC">      0.00001000</i>
  </separator>
  <separator name="dos" >
   <i type="logical" name="LORBIT"> F  </i>
   <v name="RWIGS">     -1.00000000     -1.00000000</v>
   <i type="int" name="NEDOS">   301</i>
   <i name="EMIN">     10.00000000</i>
   <i name="EMAX">    -10.00000000</i>
   <i name="EFERMI">      0.00000000</i>
  </separator>
  <separator name="writing" >
   <i type="int" name="NWRITE">     2</i>
   <i type="logical" name="LWAVE"> F  </i>
   <i type="logical" name="LCHARG"> F  </i>
   <i type="logical" name="LPARD"> F  </i>
   <i type="logical" name="LVTOT"> F  </i>
   <i type="logical" name="LVHAR"> F  </i>
   <i type="logical" name="LELF"> F  </i>
   <i type="logical" name="LOPTICS"> F  </i>
   <v name="STM">      0.00000000      0.00000000      0.00000000      0.00000000      0.00000000      0.00000000      0.00000000</v>
  </separator>
  <separator name="performance" >
   <i type="int" name="NPAR">     8</i>
   <i type="int" name="NSIM">     4</i>
   <i type="int" name="NBLK">    -1</i>
   <i type="logical" name="LPLANE"> T  </i>
   <i type="logical" name="LSCALAPACK"> T  </i>
   <i type="logical" name="LSCAAWARE"> T  </i>
   <i type="logical" name="LSCALU"> F  </i>
   <i type="logical" name="LASYNC"> F  </i>
   <i type="logical" name="LORBITALREAL"> F  </i>
  </separator>
  <separator name="miscellaneous" >
   <i type="int" name="IDIOT">     3</i>
   <i type="logical" name="LMUSIC"> F  </i>
   <v name="POMASS">     16.00000000     28.08500000</v>
   <v name="DARWINR">      0.00000000      0.00000000</v>
   <v name="DARWINV">      1.00000000      1.00000000</v>
   <i type="logical" name="LCORR"> T  </i>
  </separator>
  <i type="logical" name="GGA_COMPAT"> T  </i>
  <i type="logical" name="LBERRY"> F  </i>
  <i type="int" name="ICORELEVEL">     0</i>
  <i type="logical" name="LDAU"> F  </i>
  <i type="int" name="I_CONSTRAINED_M">     0</i>
  <separator name="electronic exchange-correlation" >
   <i type="string" name="GGA">--</i>
   <i type="int" name="VOSKOWN">     0</i>
   <i type="logical" name="LHFCALC"> F  </i>
   <i type="string" name="PRECFOCK"></i>
   <i type="logical" name="LSYMGRAD"> F  </i>
   <i type="logical" name="LHFONE"> F  </i>
   <i type="logical" name="LRHFCALC"> F  </i>
   <i type="logical" name="LTHOMAS"> F  </i>
   <i type="logical" name="LMODELHF"> F  </i>
   <i name="ENCUT4O">     -1.00000000</i>
   <i type="int" name="EXXOEP">     0</i>
   <i type="int" name="FOURORBIT">     0</i>
   <i name="AEXX">      0.00000000</i>
   <i name="HFALPHA">      0.00000000</i>
   <i name="MCALPHA">      0.00000000</i>
   <i name="ALDAX">      1.00000000</i>
   <i name="AGGAX">      1.00000000</i>
   <i name="ALDAC">      1.00000000</i>
   <i name="AGGAC">      1.00000000</i>
   <i type="int" name="NKREDX">     1</i>
   <i type="int" name="NKREDY">     1</i>
   <i type="int" name="NKREDZ">     1</i>
   <i type="logical" name="SHIFTRED"> F  </i>
   <i type="logical" name="ODDONLY"> F  </i>
   <i type="logical" name="EVENONLY"> F  </i>
   <i type="int" name="LMAXFOCK">     0</i>
   <i type="int" name="NMAXFOCKAE">     0</i>
   <i type="logical" name="LFOCKAEDFT"> F  </i>
   <i name="HFSCREEN">      0.00000000</i>
   <i name="HFSCREENC">      0.00000000</i>
   <i type="int" name="NBANDSGWLOW">     0</i>
  </separator>
  <separator name="vdW DFT" >
   <i type="logical" name="LUSE_VDW"> F  </i>
   <i name="Zab_VDW">     -0.84910000</i>
   <i name="PARAM1">      0.12340000</i>
   <i name="PARAM2">      1.00000000</i>
   <i name="PARAM3">      0.00000000</i>
  </separator>
  <separator name="model GW" >
   <i type="int" name="MODEL_GW">     0</i>
   <i name="MODEL_EPS0">      7.86828565</i>
   <i name="MODEL_ALPHA">      1.00000000</i>
  </separator>
  <separator name="linear response parameters" >
   <i type="logical" name="LEPSILON"> F  </i>
   <i type="logical" name="LRPA"> F  </i>
   <i type="logical" name="LNABLA"> F  </i>
   <i type="logical" name="LVEL"> F  </i>
   <i type="int" name="KINTER">     0</i>
   <i name="CSHIFT">      0.10000000</i>
   <i name="OMEGAMAX">     -1.00000000</i>
   <i name="DEG_THRESHOLD">      0.00200000</i>
  </separator>
  <separator name="orbital magnetization" >
   <i type="logical" name="NUCIND"> F  </i>
   <v name="MAGPOS">      0.00000000      0.00000000      0.00000000</v>
   <i type="logical" name="LNICSALL"> T  </i>
   <i type="logical" name="ORBITALMAG"> F  </i>
   <i type="logical" name="LMAGBLOCH"> F  </i>
   <i type="logical" name="LCHIMAG"> F  </i>
   <i type="logical" name="LGAUGE"> T  </i>
   <i type="int" name="MAGATOM">     0</i>
   <v name="MAGDIPOL">      0.00000000      0.00000000      0.00000000</v>
   <v name="AVECCONST">      0.00000000      0.00000000      0.00000000</v>
  </separator>
  <separator name="response functions" >
   <i type="logical" name="LADDER"> F  </i>
   <i type="logical" name="LFXC"> F  </i>
   <i type="logical" name="LHARTREE"> T  </i>
   <i type="int" name="IBSE">     0</i>
   <i type="logical" name="LTCTE"> F  </i>
   <i type="logical" name="LTETE"> F  </i>
   <i type="logical" name="LTRIPLET"> F  </i>
   <i type="logical" name="LFXCEPS"> F  </i>
   <i type="logical" name="LFXHEG"> F  </i>
   <i type="logical" name="L2ORDER"> F  </i>
   <i type="logical" name="LUSEW"> F  </i>
   <i name="ENCUTGW">     -2.00000000</i>
   <i name="ENCUTGWSOFT">     -2.00000000</i>
   <i name="ENCUTLF">     -1.00000000</i>
   <i type="int" name="LMAXMP2">    -1</i>
   <i name="SCISSOR">      0.00000000</i>
   <i type="int" name="NOMEGA">     0</i>
   <i type="int" name="NOMEGAR">     0</i>
   <i type="int" name="NBANDSGW">    -1</i>
   <i type="int" name="NBANDSO">    -1</i>
   <i type="int" name="NBANDSV">    -1</i>
   <i type="int" name="NELM">     1</i>
   <i type="int" name="DIM">     3</i>
   <i type="int" name="ANTIRES">     0</i>
   <i name="OMEGAMAX">    -30.00000000</i>
   <i name="OMEGAMIN">    -30.00000000</i>
   <i name="OMEGATL">   -200.00000000</i>
   <i type="int" name="OMEGAGRID">     0</i>
   <i name="CSHIFT">     -0.10000000</i>
   <i type="logical" name="SELFENERGY"> F  </i>
   <i type="logical" name="LSPECTRAL"> F  </i>
   <i type="logical" name="ODDONLYGW"> F  </i>
   <i type="logical" name="EVENONLYGW"> F  </i>
   <i type="int" name="NKREDLFX">     1</i>
   <i type="int" name="NKREDLFY">     1</i>
   <i type="int" name="NKREDLFZ">     1</i>
   <i type="int" name="MAXMEM">  1800</i>
   <i type="int" name="TELESCOPE">     0</i>
   <i type="int" name="TAUPAR">     1</i>
  </separator>
  <separator name="External order field" >
   <i name="OFIELD_KAPPA">      0.00000000</i>
   <v name="OFIELD_K">      0.00000000      0.00000000      0.00000000</v>
   <i name="OFIELD_Q6_NEAR">      0.00000000</i>
   <i name="OFIELD_Q6_FAR">      0.00000000</i>
   <i name="OFIELD_A">      0.00000000</i>
  </separator>
 </parameters>
 <atominfo>
  <atoms>     243 </atoms>
  <types>       2 </types>
  <array name="atoms" >
   <dimension dim="1">ion</dimension>
   <field type="string">element</field>
   <field type="int">atomtype</field>
   <set>
    <rc><c>O </c><c>   1</c></rc>
    <rc><c>O </c><c>   1</c></rc>
    <rc><c>O </c><c>   1</c></rc>
    <rc><c>O </c><c>   1</c></rc>
    <rc><c>O </c><c>   1</c></rc>
    <rc><c>O </c><c>   1</c></rc>
    <rc><c>O </c><c>   1</c></rc>
    <rc><c>O </c><c>   1</c></rc>
    <rc><c>O </c><c>   1</c></rc>
    <rc><c>O </c><c>   1</c></rc>
    <rc><c>O </c><c>   1</c></rc>
    <rc><c>O </c><c>   1</c></rc>
    <rc><c>O </c><c>   1</c></rc>
    <rc><c>O </c><c>   1</c></rc>
    <rc><c>O </c><c>   1</c></rc>
    <rc><c>O </c><c>   1</c></rc>
    <rc><c>O </c><c>   1</c></rc>
    <rc><c>O </c><c>   1</c></rc>
    <rc><c>O </c><c>   1</c></rc>
    <rc><c>O </c><c>   1</c></rc>
    <rc><c>O </c><c>   1</c></rc>
    <rc><c>O </c><c>   1</c></rc>
    <rc><c>O </c><c>   1</c></rc>
    <rc><c>O </c><c>   1</c></rc>
    <rc><c>O </c><c>   1</c></rc>
    <rc><c>O </c><c>   1</c></rc>
    <rc><c>O </c><c>   1</c></rc>
    <rc><c>O </c><c>   1</c></rc>
    <rc><c>O </c><c>   1</c></rc>
    <rc><c>O </c><c>   1</c></rc>
    <rc><c>O </c><c>   1</c></rc>
    <rc><c>O </c><c>   1</c></rc>
    <rc><c>O </c><c>   1</c></rc>
    <rc><c>O </c><c>   1</c></rc>
    <rc><c>O </c><c>   1</c></rc>
    <rc><c>O </c><c>   1</c></rc>
    <rc><c>O </c><c>   1</c></rc>
    <rc><c>O </c><c>   1</c></rc>
    <rc><c>O </c><c>   1</c></rc>
    <rc><c>O </c><c>   1</c></rc>
    <rc><c>O </c><c>   1</c></rc>
    <rc><c>O </c><c>   1</c></rc>
    <rc><c>O </c><c>   1</c></rc>
    <rc><c>O </c><c>   1</c></rc>
    <rc><c>O </c><c>   1</c></rc>
    <rc><c>O </c><c>   1</c></rc>
    <rc><c>O </c><c>   1</c></rc>
    <rc><c>O </c><c>   1</c></rc>
    <rc><c>O </c><c>   1</c></rc>
    <rc><c>O </c><c>   1</c></rc>
    <rc><c>O </c><c>   1</c></rc>
    <rc><c>O </c><c>   1</c></rc>
    <rc><c>O </c><c>   1</c></rc>
    <rc><c>O </c><c>   1</c></rc>
    <rc><c>O </c><c>   1</c></rc>
    <rc><c>O </c><c>   1</c></rc>
    <rc><c>O </c><c>   1</c></rc>
    <rc><c>O </c><c>   1</c></rc>
    <rc><c>O </c><c>   1</c></rc>
    <rc><c>O </c><c>   1</c></rc>
    <rc><c>O </c><c>   1</c></rc>
    <rc><c>O </c><c>   1</c></rc>
    <rc><c>O </c><c>   1</c></rc>
    <rc><c>O </c><c>   1</c></rc>
    <rc><c>O </c><c>   1</c></rc>
    <rc><c>O </c><c>   1</c></rc>
    <rc><c>O </c><c>   1</c></rc>
    <rc><c>O </c><c>   1</c></rc>
    <rc><c>O </c><c>   1</c></rc>
    <rc><c>O </c><c>   1</c></rc>
    <rc><c>O </c><c>   1</c></rc>
    <rc><c>O </c><c>   1</c></rc>
    <rc><c>O </c><c>   1</c></rc>
    <rc><c>O </c><c>   1</c></rc>
    <rc><c>O </c><c>   1</c></rc>
    <rc><c>O </c><c>   1</c></rc>
    <rc><c>O </c><c>   1</c></rc>
    <rc><c>O </c><c>   1</c></rc>
    <rc><c>O </c><c>   1</c></rc>
    <rc><c>O </c><c>   1</c></rc>
    <rc><c>O </c><c>   1</c></rc>
    <rc><c>O </c><c>   1</c></rc>
    <rc><c>O </c><c>   1</c></rc>
    <rc><c>O </c><c>   1</c></rc>
    <rc><c>O </c><c>   1</c></rc>
    <rc><c>O </c><c>   1</c></rc>
    <rc><c>O </c><c>   1</c></rc>
    <rc><c>O </c><c>   1</c></rc>
    <rc><c>O </c><c>   1</c></rc>
    <rc><c>O </c><c>   1</c></rc>
    <rc><c>O </c><c>   1</c></rc>
    <rc><c>O </c><c>   1</c></rc>
    <rc><c>O </c><c>   1</c></rc>
    <rc><c>O </c><c>   1</c></rc>
    <rc><c>O </c><c>   1</c></rc>
    <rc><c>O </c><c>   1</c></rc>
    <rc><c>O </c><c>   1</c></rc>
    <rc><c>O </c><c>   1</c></rc>
    <rc><c>O </c><c>   1</c></rc>
    <rc><c>O </c><c>   1</c></rc>
    <rc><c>O </c><c>   1</c></rc>
    <rc><c>O </c><c>   1</c></rc>
    <rc><c>O </c><c>   1</c></rc>
    <rc><c>O </c><c>   1</c></rc>
    <rc><c>O </c><c>   1</c></rc>
    <rc><c>O </c><c>   1</c></rc>
    <rc><c>O </c><c>   1</c></rc>
    <rc><c>O </c><c>   1</c></rc>
    <rc><c>O </c><c>   1</c></rc>
    <rc><c>O </c><c>   1</c></rc>
    <rc><c>O </c><c>   1</c></rc>
    <rc><c>O </c><c>   1</c></rc>
    <rc><c>O </c><c>   1</c></rc>
    <rc><c>O </c><c>   1</c></rc>
    <rc><c>O </c><c>   1</c></rc>
    <rc><c>O </c><c>   1</c></rc>
    <rc><c>O </c><c>   1</c></rc>
    <rc><c>O </c><c>   1</c></rc>
    <rc><c>O </c><c>   1</c></rc>
    <rc><c>O </c><c>   1</c></rc>
    <rc><c>O </c><c>   1</c></rc>
    <rc><c>O </c><c>   1</c></rc>
    <rc><c>O </c><c>   1</c></rc>
    <rc><c>O </c><c>   1</c></rc>
    <rc><c>O </c><c>   1</c></rc>
    <rc><c>O </c><c>   1</c></rc>
    <rc><c>O </c><c>   1</c></rc>
    <rc><c>O </c><c>   1</c></rc>
    <rc><c>O </c><c>   1</c></rc>
    <rc><c>O </c><c>   1</c></rc>
    <rc><c>O </c><c>   1</c></rc>
    <rc><c>O </c><c>   1</c></rc>
    <rc><c>O </c><c>   1</c></rc>
    <rc><c>O </c><c>   1</c></rc>
    <rc><c>O </c><c>   1</c></rc>
    <rc><c>O </c><c>   1</c></rc>
    <rc><c>O </c><c>   1</c></rc>
    <rc><c>O </c><c>   1</c></rc>
    <rc><c>O </c><c>   1</c></rc>
    <rc><c>O </c><c>   1</c></rc>
    <rc><c>O </c><c>   1</c></rc>
    <rc><c>O </c><c>   1</c></rc>
    <rc><c>O </c><c>   1</c></rc>
    <rc><c>O </c><c>   1</c></rc>
    <rc><c>O </c><c>   1</c></rc>
    <rc><c>O </c><c>   1</c></rc>
    <rc><c>O </c><c>   1</c></rc>
    <rc><c>O </c><c>   1</c></rc>
    <rc><c>O </c><c>   1</c></rc>
    <rc><c>O </c><c>   1</c></rc>
    <rc><c>O </c><c>   1</c></rc>
    <rc><c>O </c><c>   1</c></rc>
    <rc><c>O </c><c>   1</c></rc>
    <rc><c>O </c><c>   1</c></rc>
    <rc><c>O </c><c>   1</c></rc>
    <rc><c>O </c><c>   1</c></rc>
    <rc><c>O </c><c>   1</c></rc>
    <rc><c>O </c><c>   1</c></rc>
    <rc><c>O </c><c>   1</c></rc>
    <rc><c>O </c><c>   1</c></rc>
    <rc><c>O </c><c>   1</c></rc>
    <rc><c>O </c><c>   1</c></rc>
    <rc><c>Si</c><c>   2</c></rc>
    <rc><c>Si</c><c>   2</c></rc>
    <rc><c>Si</c><c>   2</c></rc>
    <rc><c>Si</c><c>   2</c></rc>
    <rc><c>Si</c><c>   2</c></rc>
    <rc><c>Si</c><c>   2</c></rc>
    <rc><c>Si</c><c>   2</c></rc>
    <rc><c>Si</c><c>   2</c></rc>
    <rc><c>Si</c><c>   2</c></rc>
    <rc><c>Si</c><c>   2</c></rc>
    <rc><c>Si</c><c>   2</c></rc>
    <rc><c>Si</c><c>   2</c></rc>
    <rc><c>Si</c><c>   2</c></rc>
    <rc><c>Si</c><c>   2</c></rc>
    <rc><c>Si</c><c>   2</c></rc>
    <rc><c>Si</c><c>   2</c></rc>
    <rc><c>Si</c><c>   2</c></rc>
    <rc><c>Si</c><c>   2</c></rc>
    <rc><c>Si</c><c>   2</c></rc>
    <rc><c>Si</c><c>   2</c></rc>
    <rc><c>Si</c><c>   2</c></rc>
    <rc><c>Si</c><c>   2</c></rc>
    <rc><c>Si</c><c>   2</c></rc>
    <rc><c>Si</c><c>   2</c></rc>
    <rc><c>Si</c><c>   2</c></rc>
    <rc><c>Si</c><c>   2</c></rc>
    <rc><c>Si</c><c>   2</c></rc>
    <rc><c>Si</c><c>   2</c></rc>
    <rc><c>Si</c><c>   2</c></rc>
    <rc><c>Si</c><c>   2</c></rc>
    <rc><c>Si</c><c>   2</c></rc>
    <rc><c>Si</c><c>   2</c></rc>
    <rc><c>Si</c><c>   2</c></rc>
    <rc><c>Si</c><c>   2</c></rc>
    <rc><c>Si</c><c>   2</c></rc>
    <rc><c>Si</c><c>   2</c></rc>
    <rc><c>Si</c><c>   2</c></rc>
    <rc><c>Si</c><c>   2</c></rc>
    <rc><c>Si</c><c>   2</c></rc>
    <rc><c>Si</c><c>   2</c></rc>
    <rc><c>Si</c><c>   2</c></rc>
    <rc><c>Si</c><c>   2</c></rc>
    <rc><c>Si</c><c>   2</c></rc>
    <rc><c>Si</c><c>   2</c></rc>
    <rc><c>Si</c><c>   2</c></rc>
    <rc><c>Si</c><c>   2</c></rc>
    <rc><c>Si</c><c>   2</c></rc>
    <rc><c>Si</c><c>   2</c></rc>
    <rc><c>Si</c><c>   2</c></rc>
    <rc><c>Si</c><c>   2</c></rc>
    <rc><c>Si</c><c>   2</c></rc>
    <rc><c>Si</c><c>   2</c></rc>
    <rc><c>Si</c><c>   2</c></rc>
    <rc><c>Si</c><c>   2</c></rc>
    <rc><c>Si</c><c>   2</c></rc>
    <rc><c>Si</c><c>   2</c></rc>
    <rc><c>Si</c><c>   2</c></rc>
    <rc><c>Si</c><c>   2</c></rc>
    <rc><c>Si</c><c>   2</c></rc>
    <rc><c>Si</c><c>   2</c></rc>
    <rc><c>Si</c><c>   2</c></rc>
    <rc><c>Si</c><c>   2</c></rc>
    <rc><c>Si</c><c>   2</c></rc>
    <rc><c>Si</c><c>   2</c></rc>
    <rc><c>Si</c><c>   2</c></rc>
    <rc><c>Si</c><c>   2</c></rc>
    <rc><c>Si</c><c>   2</c></rc>
    <rc><c>Si</c><c>   2</c></rc>
    <rc><c>Si</c><c>   2</c></rc>
    <rc><c>Si</c><c>   2</c></rc>
    <rc><c>Si</c><c>   2</c></rc>
    <rc><c>Si</c><c>   2</c></rc>
    <rc><c>Si</c><c>   2</c></rc>
    <rc><c>Si</c><c>   2</c></rc>
    <rc><c>Si</c><c>   2</c></rc>
    <rc><c>Si</c><c>   2</c></rc>
    <rc><c>Si</c><c>   2</c></rc>
    <rc><c>Si</c><c>   2</c></rc>
    <rc><c>Si</c><c>   2</c></rc>
    <rc><c>Si</c><c>   2</c></rc>
    <rc><c>Si</c><c>   2</c></rc>
   </set>
  </array>
  <array name="atomtypes" >
   <dimension dim="1">type</dimension>
   <field type="int">atomspertype</field>
   <field type="string">element</field>
   <field>mass</field>
   <field>valence</field>
   <field type="string">pseudopotential</field>
   <set>
    <rc><c> 162</c><c>O </c><c>     16.00000000</c><c>      6.00000000</c><c>  PAW_PBE O 08Apr2002                   </c></rc>
    <rc><c>  81</c><c>Si</c><c>     28.08500000</c><c>      4.00000000</c><c>  PAW_PBE Si 05Jan2001                  </c></rc>
   </set>
  </array>
 </atominfo>
 <structure name="initialpos" >
  <crystal>
   <varray name="basis" >
    <v>      14.99190030       0.00000000       0.00000000 </v>
    <v>      -7.49594983      12.98336669       0.00000000 </v>
    <v>       0.00000030       0.00000052      16.37160030 </v>
   </varray>
   <i name="volume">   3186.65568995 </i>
   <varray name="rec_basis" >
    <v>       0.06670268       0.03851081      -0.00000000 </v>
    <v>       0.00000000       0.07702162      -0.00000000 </v>
    <v>       0.00000000       0.00000000       0.06108138 </v>
   </varray>
  </crystal>
  <varray name="positions" >
   <v>       0.06921667       0.13843334       0.00000000 </v>
   <v>       0.26411666       0.06921667       0.11111111 </v>
   <v>       0.19489999       0.26411666       0.22222222 </v>
   <v>       0.26411666       0.19489999       0.00000000 </v>
   <v>       0.06921667       0.26411666       0.11111111 </v>
   <v>       0.13843334       0.06921667       0.22222222 </v>
   <v>       0.06921667       0.13843334       0.33333333 </v>
   <v>       0.26411666       0.06921667       0.44444444 </v>
   <v>       0.19489999       0.26411666       0.55555556 </v>
   <v>       0.26411666       0.19489999       0.33333333 </v>
   <v>       0.06921667       0.26411666       0.44444444 </v>
   <v>       0.13843334       0.06921667       0.55555556 </v>
   <v>       0.06921667       0.13843334       0.66666667 </v>
   <v>       0.26411666       0.06921667       0.77777778 </v>
   <v>       0.19489999       0.26411666       0.88888889 </v>
   <v>       0.26411666       0.19489999       0.66666667 </v>
   <v>       0.06921667       0.26411666       0.77777778 </v>
   <v>       0.13843334       0.06921667       0.88888889 </v>
   <v>       0.06921667       0.47176667       0.00000000 </v>
   <v>       0.26411666       0.40255000       0.11111111 </v>
   <v>       0.19489999       0.59745000       0.22222222 </v>
   <v>       0.26411666       0.52823333       0.00000000 </v>
   <v>       0.06921667       0.59745000       0.11111111 </v>
   <v>       0.13843334       0.40255000       0.22222222 </v>
   <v>       0.06921667       0.47176667       0.33333333 </v>
   <v>       0.26411666       0.40255000       0.44444444 </v>
   <v>       0.19489999       0.59745000       0.55555556 </v>
   <v>       0.26411666       0.52823333       0.33333333 </v>
   <v>       0.06921667       0.59745000       0.44444444 </v>
   <v>       0.13843334       0.40255000       0.55555556 </v>
   <v>       0.06921667       0.47176667       0.66666667 </v>
   <v>       0.26411666       0.40255000       0.77777778 </v>
   <v>       0.19489999       0.59745000       0.88888889 </v>
   <v>       0.26411666       0.52823333       0.66666667 </v>
   <v>       0.06921667       0.59745000       0.77777778 </v>
   <v>       0.13843334       0.40255000       0.88888889 </v>
   <v>       0.06921667       0.80510001       0.00000000 </v>
   <v>       0.26411666       0.73588334       0.11111111 </v>
   <v>       0.19489999       0.93078333       0.22222222 </v>
   <v>       0.26411666       0.86156666       0.00000000 </v>
   <v>       0.06921667       0.93078333       0.11111111 </v>
   <v>       0.13843334       0.73588334       0.22222222 </v>
   <v>       0.06921667       0.80510001       0.33333333 </v>
   <v>       0.26411666       0.73588334       0.44444444 </v>
   <v>       0.19489999       0.93078333       0.55555556 </v>
   <v>       0.26411666       0.86156666       0.33333333 </v>
   <v>       0.06921667       0.93078333       0.44444444 </v>
   <v>       0.13843334       0.73588334       0.55555556 </v>
   <v>       0.06921667       0.80510001       0.66666667 </v>
   <v>       0.26411666       0.73588334       0.77777778 </v>
   <v>       0.19489999       0.93078333       0.88888889 </v>
   <v>       0.26411666       0.86156666       0.66666667 </v>
   <v>       0.06921667       0.93078333       0.77777778 </v>
   <v>       0.13843334       0.73588334       0.88888889 </v>
   <v>       0.40255000       0.13843334       0.00000000 </v>
   <v>       0.59745000       0.06921667       0.11111111 </v>
   <v>       0.52823333       0.26411666       0.22222222 </v>
   <v>       0.59745000       0.19489999       0.00000000 </v>
   <v>       0.40255000       0.26411666       0.11111111 </v>
   <v>       0.47176667       0.06921667       0.22222222 </v>
   <v>       0.40255000       0.13843334       0.33333333 </v>
   <v>       0.59745000       0.06921667       0.44444444 </v>
   <v>       0.52823333       0.26411666       0.55555556 </v>
   <v>       0.59745000       0.19489999       0.33333333 </v>
   <v>       0.40255000       0.26411666       0.44444444 </v>
   <v>       0.47176667       0.06921667       0.55555556 </v>
   <v>       0.40255000       0.13843334       0.66666667 </v>
   <v>       0.59745000       0.06921667       0.77777778 </v>
   <v>       0.52823333       0.26411666       0.88888889 </v>
   <v>       0.59745000       0.19489999       0.66666667 </v>
   <v>       0.40255000       0.26411666       0.77777778 </v>
   <v>       0.47176667       0.06921667       0.88888889 </v>
   <v>       0.40255000       0.47176667       0.00000000 </v>
   <v>       0.59745000       0.40255000       0.11111111 </v>
   <v>       0.52823333       0.59745000       0.22222222 </v>
   <v>       0.59745000       0.52823333       0.00000000 </v>
   <v>       0.40255000       0.59745000       0.11111111 </v>
   <v>       0.47176667       0.40255000       0.22222222 </v>
   <v>       0.40255000       0.47176667       0.33333333 </v>
   <v>       0.59745000       0.40255000       0.44444444 </v>
   <v>       0.52823333       0.59745000       0.55555556 </v>
   <v>       0.59745000       0.52823333       0.33333333 </v>
   <v>       0.40255000       0.59745000       0.44444444 </v>
   <v>       0.47176667       0.40255000       0.55555556 </v>
   <v>       0.40255000       0.47176667       0.66666667 </v>
   <v>       0.59745000       0.40255000       0.77777778 </v>
   <v>       0.52823333       0.59745000       0.88888889 </v>
   <v>       0.59745000       0.52823333       0.66666667 </v>
   <v>       0.40255000       0.59745000       0.77777778 </v>
   <v>       0.47176667       0.40255000       0.88888889 </v>
   <v>       0.40255000       0.80510001       0.00000000 </v>
   <v>       0.59745000       0.73588334       0.11111111 </v>
   <v>       0.52823333       0.93078333       0.22222222 </v>
   <v>       0.59745000       0.86156666       0.00000000 </v>
   <v>       0.40255000       0.93078333       0.11111111 </v>
   <v>       0.47176667       0.73588334       0.22222222 </v>
   <v>       0.40255000       0.80510001       0.33333333 </v>
   <v>       0.59745000       0.73588334       0.44444444 </v>
   <v>       0.52823333       0.93078333       0.55555556 </v>
   <v>       0.59745000       0.86156666       0.33333333 </v>
   <v>       0.40255000       0.93078333       0.44444444 </v>
   <v>       0.47176667       0.73588334       0.55555556 </v>
   <v>       0.40255000       0.80510001       0.66666667 </v>
   <v>       0.59745000       0.73588334       0.77777778 </v>
   <v>       0.52823333       0.93078333       0.88888889 </v>
   <v>       0.59745000       0.86156666       0.66666667 </v>
   <v>       0.40255000       0.93078333       0.77777778 </v>
   <v>       0.47176667       0.73588334       0.88888889 </v>
   <v>       0.73588334       0.13843334       0.00000000 </v>
   <v>       0.93078333       0.06921667       0.11111111 </v>
   <v>       0.86156666       0.26411666       0.22222222 </v>
   <v>       0.93078333       0.19489999       0.00000000 </v>
   <v>       0.73588334       0.26411666       0.11111111 </v>
   <v>       0.80510001       0.06921667       0.22222222 </v>
   <v>       0.73588334       0.13843334       0.33333333 </v>
   <v>       0.93078333       0.06921667       0.44444444 </v>
   <v>       0.86156666       0.26411666       0.55555556 </v>
   <v>       0.93078333       0.19489999       0.33333333 </v>
   <v>       0.73588334       0.26411666       0.44444444 </v>
   <v>       0.80510001       0.06921667       0.55555556 </v>
   <v>       0.73588334       0.13843334       0.66666667 </v>
   <v>       0.93078333       0.06921667       0.77777778 </v>
   <v>       0.86156666       0.26411666       0.88888889 </v>
   <v>       0.93078333       0.19489999       0.66666667 </v>
   <v>       0.73588334       0.26411666       0.77777778 </v>
   <v>       0.80510001       0.06921667       0.88888889 </v>
   <v>       0.73588334       0.47176667       0.00000000 </v>
   <v>       0.93078333       0.40255000       0.11111111 </v>
   <v>       0.86156666       0.59745000       0.22222222 </v>
   <v>       0.93078333       0.52823333       0.00000000 </v>
   <v>       0.73588334       0.59745000       0.11111111 </v>
   <v>       0.80510001       0.40255000       0.22222222 </v>
   <v>       0.73588334       0.47176667       0.33333333 </v>
   <v>       0.93078333       0.40255000       0.44444444 </v>
   <v>       0.86156666       0.59745000       0.55555556 </v>
   <v>       0.93078333       0.52823333       0.33333333 </v>
   <v>       0.73588334       0.59745000       0.44444444 </v>
   <v>       0.80510001       0.40255000       0.55555556 </v>
   <v>       0.73588334       0.47176667       0.66666667 </v>
   <v>       0.93078333       0.40255000       0.77777778 </v>
   <v>       0.86156666       0.59745000       0.88888889 </v>
   <v>       0.93078333       0.52823333       0.66666667 </v>
   <v>       0.73588334       0.59745000       0.77777778 </v>
   <v>       0.80510001       0.40255000       0.88888889 </v>
   <v>       0.73588334       0.80510001       0.00000000 </v>
   <v>       0.93078333       0.73588334       0.11111111 </v>
   <v>       0.86156666       0.93078333       0.22222222 </v>
   <v>       0.93078333       0.86156666       0.00000000 </v>
   <v>       0.73588334       0.93078333       0.11111111 </v>
   <v>       0.80510001       0.73588334       0.22222222 </v>
   <v>       0.73588334       0.80510001       0.33333333 </v>
   <v>       0.93078333       0.73588334       0.44444444 </v>
   <v>       0.86156666       0.93078333       0.55555556 </v>
   <v>       0.93078333       0.86156666       0.33333333 </v>
   <v>       0.73588334       0.93078333       0.44444444 </v>
   <v>       0.80510001       0.73588334       0.55555556 </v>
   <v>       0.73588334       0.80510001       0.66666667 </v>
   <v>       0.93078333       0.73588334       0.77777778 </v>
   <v>       0.86156666       0.93078333       0.88888889 </v>
   <v>       0.93078333       0.86156666       0.66666667 </v>
   <v>       0.73588334       0.93078333       0.77777778 </v>
   <v>       0.80510001       0.73588334       0.88888889 </v>
   <v>       0.16666667       0.00000000       0.16666667 </v>
   <v>       0.16666667       0.16666667       0.27777778 </v>
   <v>       0.00000000       0.16666667       0.05555556 </v>
   <v>       0.16666667       0.00000000       0.50000000 </v>
   <v>       0.16666667       0.16666667       0.61111111 </v>
   <v>       0.00000000       0.16666667       0.38888889 </v>
   <v>       0.16666667       0.00000000       0.83333333 </v>
   <v>       0.16666667       0.16666667       0.94444444 </v>
   <v>       0.00000000       0.16666667       0.72222222 </v>
   <v>       0.16666667       0.33333333       0.16666667 </v>
   <v>       0.16666667       0.50000000       0.27777778 </v>
   <v>       0.00000000       0.50000000       0.05555556 </v>
   <v>       0.16666667       0.33333333       0.50000000 </v>
   <v>       0.16666667       0.50000000       0.61111111 </v>
   <v>       0.00000000       0.50000000       0.38888889 </v>
   <v>       0.16666667       0.33333333       0.83333333 </v>
   <v>       0.16666667       0.50000000       0.94444444 </v>
   <v>       0.00000000       0.50000000       0.72222222 </v>
   <v>       0.16666667       0.66666667       0.16666667 </v>
   <v>       0.16666667       0.83333333       0.27777778 </v>
   <v>       0.00000000       0.83333333       0.05555556 </v>
   <v>       0.16666667       0.66666667       0.50000000 </v>
   <v>       0.16666667       0.83333333       0.61111111 </v>
   <v>       0.00000000       0.83333333       0.38888889 </v>
   <v>       0.16666667       0.66666667       0.83333333 </v>
   <v>       0.16666667       0.83333333       0.94444444 </v>
   <v>       0.00000000       0.83333333       0.72222222 </v>
   <v>       0.50000000       0.00000000       0.16666667 </v>
   <v>       0.50000000       0.16666667       0.27777778 </v>
   <v>       0.33333333       0.16666667       0.05555556 </v>
   <v>       0.50000000       0.00000000       0.50000000 </v>
   <v>       0.50000000       0.16666667       0.61111111 </v>
   <v>       0.33333333       0.16666667       0.38888889 </v>
   <v>       0.50000000       0.00000000       0.83333333 </v>
   <v>       0.50000000       0.16666667       0.94444444 </v>
   <v>       0.33333333       0.16666667       0.72222222 </v>
   <v>       0.50000000       0.33333333       0.16666667 </v>
   <v>       0.50000000       0.50000000       0.27777778 </v>
   <v>       0.33333333       0.50000000       0.05555556 </v>
   <v>       0.50000000       0.33333333       0.50000000 </v>
   <v>       0.50000000       0.50000000       0.61111111 </v>
   <v>       0.33333333       0.50000000       0.38888889 </v>
   <v>       0.50000000       0.33333333       0.83333333 </v>
   <v>       0.50000000       0.50000000       0.94444444 </v>
   <v>       0.33333333       0.50000000       0.72222222 </v>
   <v>       0.50000000       0.66666667       0.16666667 </v>
   <v>       0.50000000       0.83333333       0.27777778 </v>
   <v>       0.33333333       0.83333333       0.05555556 </v>
   <v>       0.50000000       0.66666667       0.50000000 </v>
   <v>       0.50000000       0.83333333       0.61111111 </v>
   <v>       0.33333333       0.83333333       0.38888889 </v>
   <v>       0.50000000       0.66666667       0.83333333 </v>
   <v>       0.50000000       0.83333333       0.94444444 </v>
   <v>       0.33333333       0.83333333       0.72222222 </v>
   <v>       0.83333333       0.00000000       0.16666667 </v>
   <v>       0.83333333       0.16666667       0.27777778 </v>
   <v>       0.66666667       0.16666667       0.05555556 </v>
   <v>       0.83333333       0.00000000       0.50000000 </v>
   <v>       0.83333333       0.16666667       0.61111111 </v>
   <v>       0.66666667       0.16666667       0.38888889 </v>
   <v>       0.83333333       0.00000000       0.83333333 </v>
   <v>       0.83333333       0.16666667       0.94444444 </v>
   <v>       0.66666667       0.16666667       0.72222222 </v>
   <v>       0.83333333       0.33333333       0.16666667 </v>
   <v>       0.83333333       0.50000000       0.27777778 </v>
   <v>       0.66666667       0.50000000       0.05555556 </v>
   <v>       0.83333333       0.33333333       0.50000000 </v>
   <v>       0.83333333       0.50000000       0.61111111 </v>
   <v>       0.66666667       0.50000000       0.38888889 </v>
   <v>       0.83333333       0.33333333       0.83333333 </v>
   <v>       0.83333333       0.50000000       0.94444444 </v>
   <v>       0.66666667       0.50000000       0.72222222 </v>
   <v>       0.83333333       0.66666667       0.16666667 </v>
   <v>       0.83333333       0.83333333       0.27777778 </v>
   <v>       0.66666667       0.83333333       0.05555556 </v>
   <v>       0.83333333       0.66666667       0.50000000 </v>
   <v>       0.83333333       0.83333333       0.61111111 </v>
   <v>       0.66666667       0.83333333       0.38888889 </v>
   <v>       0.83333333       0.66666667       0.83333333 </v>
   <v>       0.83333333       0.83333333       0.94444444 </v>
   <v>       0.66666667       0.83333333       0.72222222 </v>
  </varray>
 </structure>
 <calculation>
  <scstep>
   <time name="dav">   13.51   13.52</time>
   <time name="total">   13.58   13.59</time>
   <energy>
    <i name="alphaZ">   1803.06568644 </i>
    <i name="ewald"> -48244.28156214 </i>
    <i name="hartreedc"> -27084.92649043 </i>
    <i name="XCdc">   3831.99201685 </i>
    <i name="pawpsdc">  63279.04302504 </i>
    <i name="pawaedc"> -62145.37184510 </i>
    <i name="eentropy">     -0.04745781 </i>
    <i name="bandstr">  -1616.08972127 </i>
    <i name="atom">  78374.96320226 </i>
    <i name="e_fr_energy">   8198.34685383 </i>
    <i name="e_wo_entrp">   8198.39431164 </i>
    <i name="e_0_energy">   8198.37058274 </i>
   </energy>
  </scstep>
  <scstep>
   <time name="dav">   15.18   15.18</time>
   <time name="total">   15.18   15.19</time>
   <energy>
    <i name="e_fr_energy">  -1478.74776540 </i>
    <i name="e_wo_entrp">  -1478.74776540 </i>
    <i name="e_0_energy">  -1478.74776540 </i>
   </energy>
  </scstep>
  <scstep>
   <time name="dav">   15.06   15.06</time>
   <time name="total">   15.06   15.07</time>
   <energy>
    <i name="e_fr_energy">  -2174.17214485 </i>
    <i name="e_wo_entrp">  -2174.17214485 </i>
    <i name="e_0_energy">  -2174.17214485 </i>
   </energy>
  </scstep>
  <scstep>
   <time name="dav">   15.35   15.36</time>
   <time name="total">   15.35   15.36</time>
   <energy>
    <i name="e_fr_energy">  -2186.36993419 </i>
    <i name="e_wo_entrp">  -2186.36993419 </i>
    <i name="e_0_energy">  -2186.36993419 </i>
   </energy>
  </scstep>
  <scstep>
   <time name="dav">   15.19   15.20</time>
   <time name="total">   15.88   15.89</time>
   <energy>
    <i name="e_fr_energy">  -2186.65011173 </i>
    <i name="e_wo_entrp">  -2186.65011173 </i>
    <i name="e_0_energy">  -2186.65011173 </i>
   </energy>
  </scstep>
  <scstep>
   <time name="dav">   14.54   14.55</time>
   <time name="total">   15.31   15.32</time>
   <energy>
    <i name="e_fr_energy">  -1917.19049154 </i>
    <i name="e_wo_entrp">  -1917.19049154 </i>
    <i name="e_0_energy">  -1917.19049154 </i>
   </energy>
  </scstep>
  <scstep>
   <time name="dav">   15.97   15.97</time>
   <time name="total">   16.74   16.75</time>
   <energy>
    <i name="e_fr_energy">  -1915.60939119 </i>
    <i name="e_wo_entrp">  -1915.60939119 </i>
    <i name="e_0_energy">  -1915.60939119 </i>
   </energy>
  </scstep>
  <scstep>
   <time name="dav">   14.80   14.80</time>
   <time name="total">   15.58   15.59</time>
   <energy>
    <i name="e_fr_energy">  -1915.29825078 </i>
    <i name="e_wo_entrp">  -1915.29825078 </i>
    <i name="e_0_energy">  -1915.29825078 </i>
   </energy>
  </scstep>
  <scstep>
   <time name="dav">   14.48   14.49</time>
   <time name="total">   15.25   15.26</time>
   <energy>
    <i name="e_fr_energy">  -1915.53547299 </i>
    <i name="e_wo_entrp">  -1915.53547299 </i>
    <i name="e_0_energy">  -1915.53547299 </i>
   </energy>
  </scstep>
  <scstep>
   <time name="dav">   14.74   14.74</time>
   <time name="total">   15.51   15.52</time>
   <energy>
    <i name="e_fr_energy">  -1915.59058903 </i>
    <i name="e_wo_entrp">  -1915.59058903 </i>
    <i name="e_0_energy">  -1915.59058903 </i>
   </energy>
  </scstep>
  <scstep>
   <time name="dav">   15.07   15.08</time>
   <time name="total">   15.86   15.86</time>
   <energy>
    <i name="e_fr_energy">  -1915.59327256 </i>
    <i name="e_wo_entrp">  -1915.59327256 </i>
    <i name="e_0_energy">  -1915.59327256 </i>
   </energy>
  </scstep>
  <scstep>
   <time name="dav">   14.91   14.93</time>
   <time name="total">   15.68   15.70</time>
   <energy>
    <i name="e_fr_energy">  -1915.59352633 </i>
    <i name="e_wo_entrp">  -1915.59352633 </i>
    <i name="e_0_energy">  -1915.59352633 </i>
   </energy>
  </scstep>
  <scstep>
   <time name="dav">   14.63   14.64</time>
   <time name="total">   15.39   15.40</time>
   <energy>
    <i name="e_fr_energy">  -1915.59365308 </i>
    <i name="e_wo_entrp">  -1915.59365308 </i>
    <i name="e_0_energy">  -1915.59365308 </i>
   </energy>
  </scstep>
  <scstep>
   <time name="dav">   11.30   11.30</time>
   <time name="total">   12.06   12.06</time>
   <energy>
    <i name="e_fr_energy">  -1915.59366629 </i>
    <i name="e_wo_entrp">  -1915.59366629 </i>
    <i name="e_0_energy">  -1915.59366629 </i>
   </energy>
  </scstep>
  <scstep>
   <time name="dav">   10.60   10.60</time>
   <time name="total">   10.67   10.67</time>
   <energy>
    <i name="alphaZ">   1803.06568644 </i>
    <i name="ewald"> -48244.28156214 </i>
    <i name="hartreedc"> -30960.27736948 </i>
    <i name="XCdc">   4088.83113357 </i>
    <i name="pawpsdc"> 243927.58115219 </i>
    <i name="pawaedc">-242859.91077339 </i>
    <i name="eentropy">     -0.00000000 </i>
    <i name="bandstr">  -8045.56513524 </i>
    <i name="atom">  78374.96320226 </i>
    <i name="e_fr_energy">  -1915.59366578 </i>
    <i name="e_wo_entrp">  -1915.59366578 </i>
    <i name="e_0_energy">  -1915.59366578 </i>
   </energy>
  </scstep>
  <structure>
   <crystal>
    <varray name="basis" >
     <v>      14.99190030       0.00000000       0.00000000 </v>
     <v>      -7.49594983      12.98336669       0.00000000 </v>
     <v>       0.00000030       0.00000052      16.37160030 </v>
    </varray>
    <i name="volume">   3186.65568995 </i>
    <varray name="rec_basis" >
     <v>       0.06670268       0.03851081      -0.00000000 </v>
     <v>       0.00000000       0.07702162      -0.00000000 </v>
     <v>       0.00000000       0.00000000       0.06108138 </v>
    </varray>
   </crystal>
   <varray name="positions" >
    <v>       0.06921667       0.13843334       0.00000000 </v>
    <v>       0.26411666       0.06921667       0.11111111 </v>
    <v>       0.19489999       0.26411666       0.22222222 </v>
    <v>       0.26411666       0.19489999       0.00000000 </v>
    <v>       0.06921667       0.26411666       0.11111111 </v>
    <v>       0.13843334       0.06921667       0.22222222 </v>
    <v>       0.06921667       0.13843334       0.33333333 </v>
    <v>       0.26411666       0.06921667       0.44444444 </v>
    <v>       0.19489999       0.26411666       0.55555556 </v>
    <v>       0.26411666       0.19489999       0.33333333 </v>
    <v>       0.06921667       0.26411666       0.44444444 </v>
    <v>       0.13843334       0.06921667       0.55555556 </v>
    <v>       0.06921667       0.13843334       0.66666667 </v>
    <v>       0.26411666       0.06921667       0.77777778 </v>
    <v>       0.19489999       0.26411666       0.88888889 </v>
    <v>       0.26411666       0.19489999       0.66666667 </v>
    <v>       0.06921667       0.26411666       0.77777778 </v>
    <v>       0.13843334       0.06921667       0.88888889 </v>
    <v>       0.06921667       0.47176667       0.00000000 </v>
    <v>       0.26411666       0.40255000       0.11111111 </v>
    <v>       0.19489999       0.59745000       0.22222222 </v>
    <v>       0.26411666       0.52823333       0.00000000 </v>
    <v>       0.06921667       0.59745000       0.11111111 </v>
    <v>       0.13843334       0.40255000       0.22222222 </v>
    <v>       0.06921667       0.47176667       0.33333333 </v>
    <v>       0.26411666       0.40255000       0.44444444 </v>
    <v>       0.19489999       0.59745000       0.55555556 </v>
    <v>       0.26411666       0.52823333       0.33333333 </v>
    <v>       0.06921667       0.59745000       0.44444444 </v>
    <v>       0.13843334       0.40255000       0.55555556 </v>
    <v>       0.06921667       0.47176667       0.66666667 </v>
    <v>       0.26411666       0.40255000       0.77777778 </v>
    <v>       0.19489999       0.59745000       0.88888889 </v>
    <v>       0.26411666       0.52823333       0.66666667 </v>
    <v>       0.06921667       0.59745000       0.77777778 </v>
    <v>       0.13843334       0.40255000       0.88888889 </v>
    <v>       0.06921667       0.80510001       0.00000000 </v>
    <v>       0.26411666       0.73588334       0.11111111 </v>
    <v>       0.19489999       0.93078333       0.22222222 </v>
    <v>       0.26411666       0.86156666       0.00000000 </v>
    <v>       0.06921667       0.93078333       0.11111111 </v>
    <v>       0.13843334       0.73588334       0.22222222 </v>
    <v>       0.06921667       0.80510001       0.33333333 </v>
    <v>       0.26411666       0.73588334       0.44444444 </v>
    <v>       0.19489999       0.93078333       0.55555556 </v>
    <v>       0.26411666       0.86156666       0.33333333 </v>
    <v>       0.06921667       0.93078333       0.44444444 </v>
    <v>       0.13843334       0.73588334       0.55555556 </v>
    <v>       0.06921667       0.80510001       0.66666667 </v>
    <v>       0.26411666       0.73588334       0.77777778 </v>
    <v>       0.19489999       0.93078333       0.88888889 </v>
    <v>       0.26411666       0.86156666       0.66666667 </v>
    <v>       0.06921667       0.93078333       0.77777778 </v>
    <v>       0.13843334       0.73588334       0.88888889 </v>
    <v>       0.40255000       0.13843334       0.00000000 </v>
    <v>       0.59745000       0.06921667       0.11111111 </v>
    <v>       0.52823333       0.26411666       0.22222222 </v>
    <v>       0.59745000       0.19489999       0.00000000 </v>
    <v>       0.40255000       0.26411666       0.11111111 </v>
    <v>       0.47176667       0.06921667       0.22222222 </v>
    <v>       0.40255000       0.13843334       0.33333333 </v>
    <v>       0.59745000       0.06921667       0.44444444 </v>
    <v>       0.52823333       0.26411666       0.55555556 </v>
    <v>       0.59745000       0.19489999       0.33333333 </v>
    <v>       0.40255000       0.26411666       0.44444444 </v>
    <v>       0.47176667       0.06921667       0.55555556 </v>
    <v>       0.40255000       0.13843334       0.66666667 </v>
    <v>       0.59745000       0.06921667       0.77777778 </v>
    <v>       0.52823333       0.26411666       0.88888889 </v>
    <v>       0.59745000       0.19489999       0.66666667 </v>
    <v>       0.40255000       0.26411666       0.77777778 </v>
    <v>       0.47176667       0.06921667       0.88888889 </v>
    <v>       0.40255000       0.47176667       0.00000000 </v>
    <v>       0.59745000       0.40255000       0.11111111 </v>
    <v>       0.52823333       0.59745000       0.22222222 </v>
    <v>       0.59745000       0.52823333       0.00000000 </v>
    <v>       0.40255000       0.59745000       0.11111111 </v>
    <v>       0.47176667       0.40255000       0.22222222 </v>
    <v>       0.40255000       0.47176667       0.33333333 </v>
    <v>       0.59745000       0.40255000       0.44444444 </v>
    <v>       0.52823333       0.59745000       0.55555556 </v>
    <v>       0.59745000       0.52823333       0.33333333 </v>
    <v>       0.40255000       0.59745000       0.44444444 </v>
    <v>       0.47176667       0.40255000       0.55555556 </v>
    <v>       0.40255000       0.47176667       0.66666667 </v>
    <v>       0.59745000       0.40255000       0.77777778 </v>
    <v>       0.52823333       0.59745000       0.88888889 </v>
    <v>       0.59745000       0.52823333       0.66666667 </v>
    <v>       0.40255000       0.59745000       0.77777778 </v>
    <v>       0.47176667       0.40255000       0.88888889 </v>
    <v>       0.40255000       0.80510001       0.00000000 </v>
    <v>       0.59745000       0.73588334       0.11111111 </v>
    <v>       0.52823333       0.93078333       0.22222222 </v>
    <v>       0.59745000       0.86156666       0.00000000 </v>
    <v>       0.40255000       0.93078333       0.11111111 </v>
    <v>       0.47176667       0.73588334       0.22222222 </v>
    <v>       0.40255000       0.80510001       0.33333333 </v>
    <v>       0.59745000       0.73588334       0.44444444 </v>
    <v>       0.52823333       0.93078333       0.55555556 </v>
    <v>       0.59745000       0.86156666       0.33333333 </v>
    <v>       0.40255000       0.93078333       0.44444444 </v>
    <v>       0.47176667       0.73588334       0.55555556 </v>
    <v>       0.40255000       0.80510001       0.66666667 </v>
    <v>       0.59745000       0.73588334       0.77777778 </v>
    <v>       0.52823333       0.93078333       0.88888889 </v>
    <v>       0.59745000       0.86156666       0.66666667 </v>
    <v>       0.40255000       0.93078333       0.77777778 </v>
    <v>       0.47176667       0.73588334       0.88888889 </v>
    <v>       0.73588334       0.13843334       0.00000000 </v>
    <v>       0.93078333       0.06921667       0.11111111 </v>
    <v>       0.86156666       0.26411666       0.22222222 </v>
    <v>       0.93078333       0.19489999       0.00000000 </v>
    <v>       0.73588334       0.26411666       0.11111111 </v>
    <v>       0.80510001       0.06921667       0.22222222 </v>
    <v>       0.73588334       0.13843334       0.33333333 </v>
    <v>       0.93078333       0.06921667       0.44444444 </v>
    <v>       0.86156666       0.26411666       0.55555556 </v>
    <v>       0.93078333       0.19489999       0.33333333 </v>
    <v>       0.73588334       0.26411666       0.44444444 </v>
    <v>       0.80510001       0.06921667       0.55555556 </v>
    <v>       0.73588334       0.13843334       0.66666667 </v>
    <v>       0.93078333       0.06921667       0.77777778 </v>
    <v>       0.86156666       0.26411666       0.88888889 </v>
    <v>       0.93078333       0.19489999       0.66666667 </v>
    <v>       0.73588334       0.26411666       0.77777778 </v>
    <v>       0.80510001       0.06921667       0.88888889 </v>
    <v>       0.73588334       0.47176667       0.00000000 </v>
    <v>       0.93078333       0.40255000       0.11111111 </v>
    <v>       0.86156666       0.59745000       0.22222222 </v>
    <v>       0.93078333       0.52823333       0.00000000 </v>
    <v>       0.73588334       0.59745000       0.11111111 </v>
    <v>       0.80510001       0.40255000       0.22222222 </v>
    <v>       0.73588334       0.47176667       0.33333333 </v>
    <v>       0.93078333       0.40255000       0.44444444 </v>
    <v>       0.86156666       0.59745000       0.55555556 </v>
    <v>       0.93078333       0.52823333       0.33333333 </v>
    <v>       0.73588334       0.59745000       0.44444444 </v>
    <v>       0.80510001       0.40255000       0.55555556 </v>
    <v>       0.73588334       0.47176667       0.66666667 </v>
    <v>       0.93078333       0.40255000       0.77777778 </v>
    <v>       0.86156666       0.59745000       0.88888889 </v>
    <v>       0.93078333       0.52823333       0.66666667 </v>
    <v>       0.73588334       0.59745000       0.77777778 </v>
    <v>       0.80510001       0.40255000       0.88888889 </v>
    <v>       0.73588334       0.80510001       0.00000000 </v>
    <v>       0.93078333       0.73588334       0.11111111 </v>
    <v>       0.86156666       0.93078333       0.22222222 </v>
    <v>       0.93078333       0.86156666       0.00000000 </v>
    <v>       0.73588334       0.93078333       0.11111111 </v>
    <v>       0.80510001       0.73588334       0.22222222 </v>
    <v>       0.73588334       0.80510001       0.33333333 </v>
    <v>       0.93078333       0.73588334       0.44444444 </v>
    <v>       0.86156666       0.93078333       0.55555556 </v>
    <v>       0.93078333       0.86156666       0.33333333 </v>
    <v>       0.73588334       0.93078333       0.44444444 </v>
    <v>       0.80510001       0.73588334       0.55555556 </v>
    <v>       0.73588334       0.80510001       0.66666667 </v>
    <v>       0.93078333       0.73588334       0.77777778 </v>
    <v>       0.86156666       0.93078333       0.88888889 </v>
    <v>       0.93078333       0.86156666       0.66666667 </v>
    <v>       0.73588334       0.93078333       0.77777778 </v>
    <v>       0.80510001       0.73588334       0.88888889 </v>
    <v>       0.16666667       0.00000000       0.16666667 </v>
    <v>       0.16666667       0.16666667       0.27777778 </v>
    <v>       0.00000000       0.16666667       0.05555556 </v>
    <v>       0.16666667       0.00000000       0.50000000 </v>
    <v>       0.16666667       0.16666667       0.61111111 </v>
    <v>       0.00000000       0.16666667       0.38888889 </v>
    <v>       0.16666667       0.00000000       0.83333333 </v>
    <v>       0.16666667       0.16666667       0.94444444 </v>
    <v>       0.00000000       0.16666667       0.72222222 </v>
    <v>       0.16666667       0.33333333       0.16666667 </v>
    <v>       0.16666667       0.50000000       0.27777778 </v>
    <v>       0.00000000       0.50000000       0.05555556 </v>
    <v>       0.16666667       0.33333333       0.50000000 </v>
    <v>       0.16666667       0.50000000       0.61111111 </v>
    <v>       0.00000000       0.50000000       0.38888889 </v>
    <v>       0.16666667       0.33333333       0.83333333 </v>
    <v>       0.16666667       0.50000000       0.94444444 </v>
    <v>       0.00000000       0.50000000       0.72222222 </v>
    <v>       0.16666667       0.66666667       0.16666667 </v>
    <v>       0.16666667       0.83333333       0.27777778 </v>
    <v>       0.00000000       0.83333333       0.05555556 </v>
    <v>       0.16666667       0.66666667       0.50000000 </v>
    <v>       0.16666667       0.83333333       0.61111111 </v>
    <v>       0.00000000       0.83333333       0.38888889 </v>
    <v>       0.16666667       0.66666667       0.83333333 </v>
    <v>       0.16666667       0.83333333       0.94444444 </v>
    <v>       0.00000000       0.83333333       0.72222222 </v>
    <v>       0.50000000       0.00000000       0.16666667 </v>
    <v>       0.50000000       0.16666667       0.27777778 </v>
    <v>       0.33333333       0.16666667       0.05555556 </v>
    <v>       0.50000000       0.00000000       0.50000000 </v>
    <v>       0.50000000       0.16666667       0.61111111 </v>
    <v>       0.33333333       0.16666667       0.38888889 </v>
    <v>       0.50000000       0.00000000       0.83333333 </v>
    <v>       0.50000000       0.16666667       0.94444444 </v>
    <v>       0.33333333       0.16666667       0.72222222 </v>
    <v>       0.50000000       0.33333333       0.16666667 </v>
    <v>       0.50000000       0.50000000       0.27777778 </v>
    <v>       0.33333333       0.50000000       0.05555556 </v>
    <v>       0.50000000       0.33333333       0.50000000 </v>
    <v>       0.50000000       0.50000000       0.61111111 </v>
    <v>       0.33333333       0.50000000       0.38888889 </v>
    <v>       0.50000000       0.33333333       0.83333333 </v>
    <v>       0.50000000       0.50000000       0.94444444 </v>
    <v>       0.33333333       0.50000000       0.72222222 </v>
    <v>       0.50000000       0.66666667       0.16666667 </v>
    <v>       0.50000000       0.83333333       0.27777778 </v>
    <v>       0.33333333       0.83333333       0.05555556 </v>
    <v>       0.50000000       0.66666667       0.50000000 </v>
    <v>       0.50000000       0.83333333       0.61111111 </v>
    <v>       0.33333333       0.83333333       0.38888889 </v>
    <v>       0.50000000       0.66666667       0.83333333 </v>
    <v>       0.50000000       0.83333333       0.94444444 </v>
    <v>       0.33333333       0.83333333       0.72222222 </v>
    <v>       0.83333333       0.00000000       0.16666667 </v>
    <v>       0.83333333       0.16666667       0.27777778 </v>
    <v>       0.66666667       0.16666667       0.05555556 </v>
    <v>       0.83333333       0.00000000       0.50000000 </v>
    <v>       0.83333333       0.16666667       0.61111111 </v>
    <v>       0.66666667       0.16666667       0.38888889 </v>
    <v>       0.83333333       0.00000000       0.83333333 </v>
    <v>       0.83333333       0.16666667       0.94444444 </v>
    <v>       0.66666667       0.16666667       0.72222222 </v>
    <v>       0.83333333       0.33333333       0.16666667 </v>
    <v>       0.83333333       0.50000000       0.27777778 </v>
    <v>       0.66666667       0.50000000       0.05555556 </v>
    <v>       0.83333333       0.33333333       0.50000000 </v>
    <v>       0.83333333       0.50000000       0.61111111 </v>
    <v>       0.66666667       0.50000000       0.38888889 </v>
    <v>       0.83333333       0.33333333       0.83333333 </v>
    <v>       0.83333333       0.50000000       0.94444444 </v>
    <v>       0.66666667       0.50000000       0.72222222 </v>
    <v>       0.83333333       0.66666667       0.16666667 </v>
    <v>       0.83333333       0.83333333       0.27777778 </v>
    <v>       0.66666667       0.83333333       0.05555556 </v>
    <v>       0.83333333       0.66666667       0.50000000 </v>
    <v>       0.83333333       0.83333333       0.61111111 </v>
    <v>       0.66666667       0.83333333       0.38888889 </v>
    <v>       0.83333333       0.66666667       0.83333333 </v>
    <v>       0.83333333       0.83333333       0.94444444 </v>
    <v>       0.66666667       0.83333333       0.72222222 </v>
   </varray>
  </structure>
  <varray name="forces" >
   <v>      -0.00000001      -0.48249712       0.00000000 </v>
   <v>       0.41785475      -0.24124856      -0.00000000 </v>
   <v>       0.41785476       0.24124856       0.00000000 </v>
   <v>       0.00000001       0.48249712       0.00000000 </v>
   <v>      -0.41785475       0.24124856      -0.00000000 </v>
   <v>      -0.41785476      -0.24124856      -0.00000000 </v>
   <v>      -0.00000001      -0.48249712       0.00000000 </v>
   <v>       0.41785475      -0.24124856      -0.00000000 </v>
   <v>       0.41785476       0.24124856       0.00000000 </v>
   <v>       0.00000001       0.48249712       0.00000000 </v>
   <v>      -0.41785475       0.24124856       0.00000000 </v>
   <v>      -0.41785476      -0.24124856      -0.00000000 </v>
   <v>      -0.00000001      -0.48249712       0.00000000 </v>
   <v>       0.41785475      -0.24124856       0.00000000 </v>
   <v>       0.41785476       0.24124856       0.00000000 </v>
   <v>       0.00000001       0.48249712       0.00000000 </v>
   <v>      -0.41785475       0.24124856      -0.00000000 </v>
   <v>      -0.41785476      -0.24124856      -0.00000000 </v>
   <v>      -0.00000001      -0.48249712       0.00000000 </v>
   <v>       0.41785475      -0.24124856       0.00000000 </v>
   <v>       0.41785476       0.24124856       0.00000000 </v>
   <v>       0.00000001       0.48249712       0.00000000 </v>
   <v>      -0.41785475       0.24124856      -0.00000000 </v>
   <v>      -0.41785476      -0.24124856      -0.00000000 </v>
   <v>      -0.00000001      -0.48249712      -0.00000000 </v>
   <v>       0.41785475      -0.24124856       0.00000000 </v>
   <v>       0.41785476       0.24124856      -0.00000000 </v>
   <v>       0.00000001       0.48249712       0.00000000 </v>
   <v>      -0.41785475       0.24124856      -0.00000000 </v>
   <v>      -0.41785476      -0.24124856      -0.00000000 </v>
   <v>      -0.00000001      -0.48249712       0.00000000 </v>
   <v>       0.41785475      -0.24124856       0.00000000 </v>
   <v>       0.41785476       0.24124856       0.00000000 </v>
   <v>       0.00000001       0.48249712       0.00000000 </v>
   <v>      -0.41785475       0.24124856      -0.00000000 </v>
   <v>      -0.41785476      -0.24124856      -0.00000000 </v>
   <v>      -0.00000001      -0.48249712       0.00000000 </v>
   <v>       0.41785475      -0.24124856       0.00000000 </v>
   <v>       0.41785476       0.24124856       0.00000000 </v>
   <v>       0.00000001       0.48249712      -0.00000000 </v>
   <v>      -0.41785475       0.24124856      -0.00000000 </v>
   <v>      -0.41785476      -0.24124856      -0.00000000 </v>
   <v>      -0.00000001      -0.48249712       0.00000000 </v>
   <v>       0.41785475      -0.24124856      -0.00000000 </v>
   <v>       0.41785476       0.24124856       0.00000000 </v>
   <v>       0.00000001       0.48249712       0.00000000 </v>
   <v>      -0.41785475       0.24124856      -0.00000000 </v>
   <v>      -0.41785476      -0.24124856      -0.00000000 </v>
   <v>      -0.00000001      -0.48249712       0.00000000 </v>
   <v>       0.41785475      -0.24124856       0.00000000 </v>
   <v>       0.41785476       0.24124856       0.00000000 </v>
   <v>       0.00000001       0.48249712       0.00000000 </v>
   <v>      -0.41785475       0.24124856      -0.00000000 </v>
   <v>      -0.41785476      -0.24124856      -0.00000000 </v>
   <v>      -0.00000001      -0.48249712       0.00000000 </v>
   <v>       0.41785475      -0.24124856       0.00000000 </v>
   <v>       0.41785476       0.24124856       0.00000000 </v>
   <v>       0.00000001       0.48249712       0.00000000 </v>
   <v>      -0.41785475       0.24124856      -0.00000000 </v>
   <v>      -0.41785476      -0.24124856      -0.00000000 </v>
   <v>      -0.00000001      -0.48249712       0.00000000 </v>
   <v>       0.41785475      -0.24124856       0.00000000 </v>
   <v>       0.41785476       0.24124856       0.00000000 </v>
   <v>       0.00000001       0.48249712       0.00000000 </v>
   <v>      -0.41785475       0.24124856      -0.00000000 </v>
   <v>      -0.41785476      -0.24124856      -0.00000000 </v>
   <v>      -0.00000001      -0.48249712       0.00000000 </v>
   <v>       0.41785475      -0.24124856       0.00000000 </v>
   <v>       0.41785476       0.24124856       0.00000000 </v>
   <v>       0.00000001       0.48249712       0.00000000 </v>
   <v>      -0.41785475       0.24124856      -0.00000000 </v>
   <v>      -0.41785476      -0.24124856      -0.00000000 </v>
   <v>      -0.00000001      -0.48249712       0.00000000 </v>
   <v>       0.41785475      -0.24124856       0.00000000 </v>
   <v>       0.41785476       0.24124856       0.00000000 </v>
   <v>       0.00000001       0.48249712       0.00000000 </v>
   <v>      -0.41785475       0.24124856      -0.00000000 </v>
   <v>      -0.41785476      -0.24124856      -0.00000000 </v>
   <v>      -0.00000001      -0.48249712      -0.00000000 </v>
   <v>       0.41785475      -0.24124856       0.00000000 </v>
   <v>       0.41785476       0.24124856      -0.00000000 </v>
   <v>       0.00000001       0.48249712       0.00000000 </v>
   <v>      -0.41785475       0.24124856      -0.00000000 </v>
   <v>      -0.41785476      -0.24124856      -0.00000000 </v>
   <v>      -0.00000001      -0.48249712       0.00000000 </v>
   <v>       0.41785475      -0.24124856      -0.00000000 </v>
   <v>       0.41785476       0.24124856       0.00000000 </v>
   <v>       0.00000001       0.48249712       0.00000000 </v>
   <v>      -0.41785475       0.24124856      -0.00000000 </v>
   <v>      -0.41785476      -0.24124856      -0.00000000 </v>
   <v>      -0.00000001      -0.48249712       0.00000000 </v>
   <v>       0.41785475      -0.24124856       0.00000000 </v>
   <v>       0.41785476       0.24124856       0.00000000 </v>
   <v>       0.00000001       0.48249712       0.00000000 </v>
   <v>      -0.41785475       0.24124856       0.00000000 </v>
   <v>      -0.41785476      -0.24124856      -0.00000000 </v>
   <v>      -0.00000001      -0.48249712       0.00000000 </v>
   <v>       0.41785475      -0.24124856      -0.00000000 </v>
   <v>       0.41785476       0.24124856       0.00000000 </v>
   <v>       0.00000001       0.48249712      -0.00000000 </v>
   <v>      -0.41785475       0.24124856       0.00000000 </v>
   <v>      -0.41785476      -0.24124856      -0.00000000 </v>
   <v>      -0.00000001      -0.48249712       0.00000000 </v>
   <v>       0.41785475      -0.24124856       0.00000000 </v>
   <v>       0.41785476       0.24124856       0.00000000 </v>
   <v>       0.00000001       0.48249712       0.00000000 </v>
   <v>      -0.41785475       0.24124856      -0.00000000 </v>
   <v>      -0.41785476      -0.24124856      -0.00000000 </v>
   <v>      -0.00000001      -0.48249712      -0.00000000 </v>
   <v>       0.41785475      -0.24124856       0.00000000 </v>
   <v>       0.41785476       0.24124856       0.00000000 </v>
   <v>       0.00000001       0.48249712       0.00000000 </v>
   <v>      -0.41785475       0.24124856      -0.00000000 </v>
   <v>      -0.41785476      -0.24124856      -0.00000000 </v>
   <v>      -0.00000001      -0.48249712      -0.00000000 </v>
   <v>       0.41785475      -0.24124856       0.00000000 </v>
   <v>       0.41785476       0.24124856       0.00000000 </v>
   <v>       0.00000001       0.48249712       0.00000000 </v>
   <v>      -0.41785475       0.24124856      -0.00000000 </v>
   <v>      -0.41785476      -0.24124856      -0.00000000 </v>
   <v>      -0.00000001      -0.48249712       0.00000000 </v>
   <v>       0.41785475      -0.24124856       0.00000000 </v>
   <v>       0.41785476       0.24124856       0.00000000 </v>
   <v>       0.00000001       0.48249712       0.00000000 </v>
   <v>      -0.41785475       0.24124856      -0.00000000 </v>
   <v>      -0.41785476      -0.24124856      -0.00000000 </v>
   <v>      -0.00000001      -0.48249712       0.00000000 </v>
   <v>       0.41785475      -0.24124856       0.00000000 </v>
   <v>       0.41785476       0.24124856       0.00000000 </v>
   <v>       0.00000001       0.48249712       0.00000000 </v>
   <v>      -0.41785475       0.24124856      -0.00000000 </v>
   <v>      -0.41785476      -0.24124856      -0.00000000 </v>
   <v>      -0.00000001      -0.48249712      -0.00000000 </v>
   <v>       0.41785475      -0.24124856       0.00000000 </v>
   <v>       0.41785476       0.24124856       0.00000000 </v>
   <v>       0.00000001       0.48249712       0.00000000 </v>
   <v>      -0.41785475       0.24124856       0.00000000 </v>
   <v>      -0.41785476      -0.24124856      -0.00000000 </v>
   <v>      -0.00000001      -0.48249712       0.00000000 </v>
   <v>       0.41785475      -0.24124856       0.00000000 </v>
   <v>       0.41785476       0.24124856       0.00000000 </v>
   <v>       0.00000001       0.48249712       0.00000000 </v>
   <v>      -0.41785475       0.24124856      -0.00000000 </v>
   <v>      -0.41785476      -0.24124856      -0.00000000 </v>
   <v>      -0.00000001      -0.48249712       0.00000000 </v>
   <v>       0.41785475      -0.24124856       0.00000000 </v>
   <v>       0.41785476       0.24124856       0.00000000 </v>
   <v>       0.00000001       0.48249712      -0.00000000 </v>
   <v>      -0.41785475       0.24124856      -0.00000000 </v>
   <v>      -0.41785476      -0.24124856      -0.00000000 </v>
   <v>      -0.00000001      -0.48249712       0.00000000 </v>
   <v>       0.41785475      -0.24124856      -0.00000000 </v>
   <v>       0.41785476       0.24124856       0.00000000 </v>
   <v>       0.00000001       0.48249712      -0.00000000 </v>
   <v>      -0.41785475       0.24124856      -0.00000000 </v>
   <v>      -0.41785476      -0.24124856      -0.00000000 </v>
   <v>      -0.00000001      -0.48249712       0.00000000 </v>
   <v>       0.41785475      -0.24124856       0.00000000 </v>
   <v>       0.41785476       0.24124856       0.00000000 </v>
   <v>       0.00000001       0.48249712       0.00000000 </v>
   <v>      -0.41785475       0.24124856      -0.00000000 </v>
   <v>      -0.41785476      -0.24124856      -0.00000000 </v>
   <v>      -0.00000000      -0.00000000       0.00000000 </v>
   <v>      -0.00000000      -0.00000000      -0.00000000 </v>
   <v>      -0.00000000      -0.00000000       0.00000000 </v>
   <v>      -0.00000000      -0.00000000       0.00000000 </v>
   <v>      -0.00000000      -0.00000000      -0.00000000 </v>
   <v>      -0.00000000      -0.00000000      -0.00000000 </v>
   <v>      -0.00000000      -0.00000000       0.00000000 </v>
   <v>      -0.00000000      -0.00000000      -0.00000000 </v>
   <v>      -0.00000000      -0.00000000      -0.00000000 </v>
   <v>      -0.00000000      -0.00000000       0.00000000 </v>
   <v>      -0.00000000      -0.00000000      -0.00000000 </v>
   <v>      -0.00000000      -0.00000000       0.00000000 </v>
   <v>      -0.00000000      -0.00000000       0.00000000 </v>
   <v>      -0.00000000      -0.00000000       0.00000000 </v>
   <v>      -0.00000000      -0.00000000      -0.00000000 </v>
   <v>      -0.00000000      -0.00000000       0.00000000 </v>
   <v>      -0.00000000      -0.00000000      -0.00000000 </v>
   <v>      -0.00000000      -0.00000000      -0.00000000 </v>
   <v>      -0.00000000      -0.00000000       0.00000000 </v>
   <v>      -0.00000000      -0.00000000       0.00000000 </v>
   <v>      -0.00000000      -0.00000000       0.00000000 </v>
   <v>      -0.00000000      -0.00000000       0.00000000 </v>
   <v>      -0.00000000      -0.00000000       0.00000000 </v>
   <v>      -0.00000000      -0.00000000       0.00000000 </v>
   <v>      -0.00000000      -0.00000000      -0.00000000 </v>
   <v>      -0.00000000      -0.00000000      -0.00000000 </v>
   <v>      -0.00000000      -0.00000000       0.00000000 </v>
   <v>      -0.00000000      -0.00000000       0.00000000 </v>
   <v>      -0.00000000      -0.00000000      -0.00000000 </v>
   <v>      -0.00000000      -0.00000000       0.00000000 </v>
   <v>      -0.00000000      -0.00000000       0.00000000 </v>
   <v>      -0.00000000      -0.00000000      -0.00000000 </v>
   <v>      -0.00000000      -0.00000000      -0.00000000 </v>
   <v>      -0.00000000      -0.00000000       0.00000000 </v>
   <v>      -0.00000000      -0.00000000      -0.00000000 </v>
   <v>      -0.00000000      -0.00000000      -0.00000000 </v>
   <v>      -0.00000000      -0.00000000       0.00000000 </v>
   <v>      -0.00000000      -0.00000000       0.00000000 </v>
   <v>      -0.00000000      -0.00000000      -0.00000000 </v>
   <v>      -0.00000000      -0.00000000       0.00000000 </v>
   <v>      -0.00000000      -0.00000000      -0.00000000 </v>
   <v>      -0.00000000      -0.00000000       0.00000000 </v>
   <v>      -0.00000000      -0.00000000       0.00000000 </v>
   <v>      -0.00000000      -0.00000000       0.00000000 </v>
   <v>      -0.00000000      -0.00000000       0.00000000 </v>
   <v>      -0.00000000      -0.00000000       0.00000000 </v>
   <v>      -0.00000000      -0.00000000       0.00000000 </v>
   <v>      -0.00000000      -0.00000000       0.00000000 </v>
   <v>      -0.00000000      -0.00000000       0.00000000 </v>
   <v>      -0.00000000      -0.00000000      -0.00000000 </v>
   <v>      -0.00000000      -0.00000000       0.00000000 </v>
   <v>      -0.00000000      -0.00000000      -0.00000000 </v>
   <v>      -0.00000000      -0.00000000      -0.00000000 </v>
   <v>      -0.00000000      -0.00000000       0.00000000 </v>
   <v>      -0.00000000      -0.00000000       0.00000000 </v>
   <v>      -0.00000000      -0.00000000      -0.00000000 </v>
   <v>      -0.00000000      -0.00000000       0.00000000 </v>
   <v>      -0.00000000      -0.00000000       0.00000000 </v>
   <v>      -0.00000000      -0.00000000      -0.00000000 </v>
   <v>      -0.00000000      -0.00000000      -0.00000000 </v>
   <v>      -0.00000000      -0.00000000       0.00000000 </v>
   <v>      -0.00000000      -0.00000000      -0.00000000 </v>
   <v>      -0.00000000      -0.00000000      -0.00000000 </v>
   <v>      -0.00000000      -0.00000000       0.00000000 </v>
   <v>      -0.00000000      -0.00000000       0.00000000 </v>
   <v>      -0.00000000      -0.00000000       0.00000000 </v>
   <v>      -0.00000000      -0.00000000       0.00000000 </v>
   <v>      -0.00000000      -0.00000000       0.00000000 </v>
   <v>      -0.00000000      -0.00000000       0.00000000 </v>
   <v>      -0.00000000      -0.00000000       0.00000000 </v>
   <v>      -0.00000000      -0.00000000       0.00000000 </v>
   <v>      -0.00000000      -0.00000000       0.00000000 </v>
   <v>      -0.00000000      -0.00000000       0.00000000 </v>
   <v>      -0.00000000      -0.00000000      -0.00000000 </v>
   <v>      -0.00000000      -0.00000000       0.00000000 </v>
   <v>      -0.00000000      -0.00000000       0.00000000 </v>
   <v>      -0.00000000      -0.00000000      -0.00000000 </v>
   <v>      -0.00000000      -0.00000000       0.00000000 </v>
   <v>      -0.00000000      -0.00000000       0.00000000 </v>
   <v>      -0.00000000      -0.00000000       0.00000000 </v>
   <v>      -0.00000000      -0.00000000       0.00000000 </v>
  </varray>
  <varray name="stress" >
   <v>      81.13899311       0.00000200       0.00000154 </v>
   <v>       0.00000200      81.13899535       0.00000267 </v>
   <v>       0.00000154       0.00000267      83.98487697 </v>
  </varray>
  <energy>
   <i name="e_fr_energy">  -1915.59366578 </i>
   <i name="e_wo_entrp">  -1915.59366578 </i>
   <i name="e_0_energy">     -0.00000000 </i>
  </energy>
  <time name="totalsc">  233.45  233.60</time>
  <eigenvalues>
   <array>
    <dimension dim="1">band</dimension>
    <dimension dim="2">kpoint</dimension>
    <dimension dim="3">spin</dimension>
    <field>eigene</field>
[...]
       <r>     3.9692     0.0000  1296.0000 </r>
       <r>     4.0796     0.0000  1296.0000 </r>
       <r>     4.1901     0.0000  1296.0000 </r>
       <r>     4.3005     0.0000  1296.0000 </r>
       <r>     4.4110     0.0000  1296.0000 </r>
       <r>     4.5215     0.0000  1296.0000 </r>
       <r>     4.6319     0.0000  1296.0000 </r>
       <r>     4.7424     0.0000  1296.0000 </r>
       <r>     4.8528     0.0000  1296.0000 </r>
       <r>     4.9633     0.0000  1296.0000 </r>
       <r>     5.0737     0.0000  1296.0000 </r>
       <r>     5.1842     0.0000  1296.0000 </r>
       <r>     5.2946     0.0000  1296.0000 </r>
       <r>     5.4051     0.0000  1296.0000 </r>
       <r>     5.5155     0.0000  1296.0000 </r>
       <r>     5.6260     0.0000  1296.0000 </r>
       <r>     5.7364     0.0000  1296.0000 </r>
       <r>     5.8469     0.0000  1296.0000 </r>
       <r>     5.9574     0.0000  1296.0000 </r>
       <r>     6.0678     0.0000  1296.0000 </r>
       <r>     6.1783     0.0000  1296.0000 </r>
       <r>     6.2887     0.0000  1296.0000 </r>
       <r>     6.3992     0.0000  1296.0000 </r>
       <r>     6.5096     0.0000  1296.0000 </r>
       <r>     6.6201     0.0002  1296.0000 </r>
       <r>     6.7305     0.2632  1296.0291 </r>
       <r>     6.8410     0.8909  1296.1275 </r>
       <r>     6.9514     4.2440  1296.5963 </r>
       <r>     7.0619     7.2118  1297.3928 </r>
       <r>     7.1723     1.9535  1297.6086 </r>
       <r>     7.2828     4.6710  1298.1245 </r>
       <r>     7.3933    16.2445  1299.9188 </r>
       <r>     7.5037     8.5451  1300.8626 </r>
       <r>     7.6142     5.5633  1301.4771 </r>
       <r>     7.7246     7.7856  1302.3371 </r>
       <r>     7.8351    17.4339  1304.2627 </r>
       <r>     7.9455    19.7986  1306.4495 </r>
       <r>     8.0560     6.2396  1307.1387 </r>
       <r>     8.1664    25.0177  1309.9020 </r>
       <r>     8.2769    16.0364  1311.6733 </r>
       <r>     8.3873     9.0550  1312.6734 </r>
       <r>     8.4978    22.0091  1315.1044 </r>
       <r>     8.6082    37.9946  1319.3011 </r>
       <r>     8.7187    23.1466  1321.8577 </r>
       <r>     8.8291    36.3483  1325.8725 </r>
       <r>     8.9396     9.5955  1326.9324 </r>
       <r>     9.0501    41.8159  1331.5511 </r>
       <r>     9.1605    46.6904  1336.7082 </r>
       <r>     9.2710    33.2599  1340.3819 </r>
       <r>     9.3814    19.9121  1342.5813 </r>
       <r>     9.4919    17.8610  1344.5541 </r>
       <r>     9.6023    63.1521  1351.5295 </r>
       <r>     9.7128    35.8147  1355.4853 </r>
       <r>     9.8232    59.0638  1362.0091 </r>
       <r>     9.9337   130.0894  1376.3780 </r>
       <r>    10.0441   170.1758  1395.1745 </r>
       <r>    10.1546   125.4139  1409.0270 </r>
       <r>    10.2650   127.9425  1423.1587 </r>
       <r>    10.3755   139.5830  1438.5761 </r>
       <r>    10.4860   150.2542  1455.1723 </r>
       <r>    10.5964   266.5214  1484.6105 </r>
       <r>    10.7069   203.5187  1507.0899 </r>
       <r>    10.8173   155.3017  1524.2436 </r>
       <r>    10.9278   125.1160  1538.0631 </r>
       <r>    11.0382    89.3498  1547.9321 </r>
       <r>    11.1487   115.6815  1560.7095 </r>
       <r>    11.2591    60.6579  1567.4094 </r>
       <r>    11.3696     5.3128  1567.9962 </r>
       <r>    11.4800     0.0340  1568.0000 </r>
       <r>    11.5905     0.0000  1568.0000 </r>
       <r>    11.7009     0.0000  1568.0000 </r>
       <r>    11.8114     0.0000  1568.0000 </r>
       <r>    11.9219     0.0000  1568.0000 </r>
       <r>    12.0323     0.0000  1568.0000 </r>
       <r>    12.1428     0.0000  1568.0000 </r>
       <r>    12.2532     0.0000  1568.0000 </r>
       <r>    12.3637     0.0000  1568.0000 </r>
       <r>    12.4741     0.0000  1568.0000 </r>
       <r>    12.5846     0.0000  1568.0000 </r>
       <r>    12.6950     0.0000  1568.0000 </r>
       <r>    12.8055     0.0000  1568.0000 </r>
      </set>
     </set>
    </array>
   </total>
  </dos>
 </calculation>
 <structure name="finalpos" >
  <crystal>
   <varray name="basis" >
    <v>      14.99190030       0.00000000       0.00000000 </v>
    <v>      -7.49594983      12.98336669       0.00000000 </v>
    <v>       0.00000030       0.00000052      16.37160030 </v>
   </varray>
   <i name="volume">   3186.65568995 </i>
   <varray name="rec_basis" >
    <v>       0.06670268       0.03851081      -0.00000000 </v>
    <v>       0.00000000       0.07702162      -0.00000000 </v>
    <v>       0.00000000       0.00000000       0.06108138 </v>
   </varray>
  </crystal>
  <varray name="positions" >
   <v>       0.06921667       0.13843334       0.00000000 </v>
   <v>       0.26411666       0.06921667       0.11111111 </v>
   <v>       0.19489999       0.26411666       0.22222222 </v>
   <v>       0.26411666       0.19489999       0.00000000 </v>
   <v>       0.06921667       0.26411666       0.11111111 </v>
   <v>       0.13843334       0.06921667       0.22222222 </v>
   <v>       0.06921667       0.13843334       0.33333333 </v>
   <v>       0.26411666       0.06921667       0.44444444 </v>
   <v>       0.19489999       0.26411666       0.55555556 </v>
   <v>       0.26411666       0.19489999       0.33333333 </v>
   <v>       0.06921667       0.26411666       0.44444444 </v>
   <v>       0.13843334       0.06921667       0.55555556 </v>
   <v>       0.06921667       0.13843334       0.66666667 </v>
   <v>       0.26411666       0.06921667       0.77777778 </v>
   <v>       0.19489999       0.26411666       0.88888889 </v>
   <v>       0.26411666       0.19489999       0.66666667 </v>
   <v>       0.06921667       0.26411666       0.77777778 </v>
   <v>       0.13843334       0.06921667       0.88888889 </v>
   <v>       0.06921667       0.47176667       0.00000000 </v>
   <v>       0.26411666       0.40255000       0.11111111 </v>
   <v>       0.19489999       0.59745000       0.22222222 </v>
   <v>       0.26411666       0.52823333       0.00000000 </v>
   <v>       0.06921667       0.59745000       0.11111111 </v>
   <v>       0.13843334       0.40255000       0.22222222 </v>
   <v>       0.06921667       0.47176667       0.33333333 </v>
   <v>       0.26411666       0.40255000       0.44444444 </v>
   <v>       0.19489999       0.59745000       0.55555556 </v>
   <v>       0.26411666       0.52823333       0.33333333 </v>
   <v>       0.06921667       0.59745000       0.44444444 </v>
   <v>       0.13843334       0.40255000       0.55555556 </v>
   <v>       0.06921667       0.47176667       0.66666667 </v>
   <v>       0.26411666       0.40255000       0.77777778 </v>
   <v>       0.19489999       0.59745000       0.88888889 </v>
   <v>       0.26411666       0.52823333       0.66666667 </v>
   <v>       0.06921667       0.59745000       0.77777778 </v>
   <v>       0.13843334       0.40255000       0.88888889 </v>
   <v>       0.06921667       0.80510001       0.00000000 </v>
   <v>       0.26411666       0.73588334       0.11111111 </v>
   <v>       0.19489999       0.93078333       0.22222222 </v>
   <v>       0.26411666       0.86156666       0.00000000 </v>
   <v>       0.06921667       0.93078333       0.11111111 </v>
   <v>       0.13843334       0.73588334       0.22222222 </v>
   <v>       0.06921667       0.80510001       0.33333333 </v>
   <v>       0.26411666       0.73588334       0.44444444 </v>
   <v>       0.19489999       0.93078333       0.55555556 </v>
   <v>       0.26411666       0.86156666       0.33333333 </v>
   <v>       0.06921667       0.93078333       0.44444444 </v>
   <v>       0.13843334       0.73588334       0.55555556 </v>
   <v>       0.06921667       0.80510001       0.66666667 </v>
   <v>       0.26411666       0.73588334       0.77777778 </v>
   <v>       0.19489999       0.93078333       0.88888889 </v>
   <v>       0.26411666       0.86156666       0.66666667 </v>
   <v>       0.06921667       0.93078333       0.77777778 </v>
   <v>       0.13843334       0.73588334       0.88888889 </v>
   <v>       0.40255000       0.13843334       0.00000000 </v>
   <v>       0.59745000       0.06921667       0.11111111 </v>
   <v>       0.52823333       0.26411666       0.22222222 </v>
   <v>       0.59745000       0.19489999       0.00000000 </v>
   <v>       0.40255000       0.26411666       0.11111111 </v>
   <v>       0.47176667       0.06921667       0.22222222 </v>
   <v>       0.40255000       0.13843334       0.33333333 </v>
   <v>       0.59745000       0.06921667       0.44444444 </v>
   <v>       0.52823333       0.26411666       0.55555556 </v>
   <v>       0.59745000       0.19489999       0.33333333 </v>
   <v>       0.40255000       0.26411666       0.44444444 </v>
   <v>       0.47176667       0.06921667       0.55555556 </v>
   <v>       0.40255000       0.13843334       0.66666667 </v>
   <v>       0.59745000       0.06921667       0.77777778 </v>
   <v>       0.52823333       0.26411666       0.88888889 </v>
   <v>       0.59745000       0.19489999       0.66666667 </v>
   <v>       0.40255000       0.26411666       0.77777778 </v>
   <v>       0.47176667       0.06921667       0.88888889 </v>
   <v>       0.40255000       0.47176667       0.00000000 </v>
   <v>       0.59745000       0.40255000       0.11111111 </v>
   <v>       0.52823333       0.59745000       0.22222222 </v>
   <v>       0.59745000       0.52823333       0.00000000 </v>
   <v>       0.40255000       0.59745000       0.11111111 </v>
   <v>       0.47176667       0.40255000       0.22222222 </v>
   <v>       0.40255000       0.47176667       0.33333333 </v>
   <v>       0.59745000       0.40255000       0.44444444 </v>
   <v>       0.52823333       0.59745000       0.55555556 </v>
   <v>       0.59745000       0.52823333       0.33333333 </v>
   <v>       0.40255000       0.59745000       0.44444444 </v>
   <v>       0.47176667       0.40255000       0.55555556 </v>
   <v>       0.40255000       0.47176667       0.66666667 </v>
   <v>       0.59745000       0.40255000       0.77777778 </v>
   <v>       0.52823333       0.59745000       0.88888889 </v>
   <v>       0.59745000       0.52823333       0.66666667 </v>
   <v>       0.40255000       0.59745000       0.77777778 </v>
   <v>       0.47176667       0.40255000       0.88888889 </v>
   <v>       0.40255000       0.80510001       0.00000000 </v>
   <v>       0.59745000       0.73588334       0.11111111 </v>
   <v>       0.52823333       0.93078333       0.22222222 </v>
   <v>       0.59745000       0.86156666       0.00000000 </v>
   <v>       0.40255000       0.93078333       0.11111111 </v>
   <v>       0.47176667       0.73588334       0.22222222 </v>
   <v>       0.40255000       0.80510001       0.33333333 </v>
   <v>       0.59745000       0.73588334       0.44444444 </v>
   <v>       0.52823333       0.93078333       0.55555556 </v>
   <v>       0.59745000       0.86156666       0.33333333 </v>
   <v>       0.40255000       0.93078333       0.44444444 </v>
   <v>       0.47176667       0.73588334       0.55555556 </v>
   <v>       0.40255000       0.80510001       0.66666667 </v>
   <v>       0.59745000       0.73588334       0.77777778 </v>
   <v>       0.52823333       0.93078333       0.88888889 </v>
   <v>       0.59745000       0.86156666       0.66666667 </v>
   <v>       0.40255000       0.93078333       0.77777778 </v>
   <v>       0.47176667       0.73588334       0.88888889 </v>
   <v>       0.73588334       0.13843334       0.00000000 </v>
   <v>       0.93078333       0.06921667       0.11111111 </v>
   <v>       0.86156666       0.26411666       0.22222222 </v>
   <v>       0.93078333       0.19489999       0.00000000 </v>
   <v>       0.73588334       0.26411666       0.11111111 </v>
   <v>       0.80510001       0.06921667       0.22222222 </v>
   <v>       0.73588334       0.13843334       0.33333333 </v>
   <v>       0.93078333       0.06921667       0.44444444 </v>
   <v>       0.86156666       0.26411666       0.55555556 </v>
   <v>       0.93078333       0.19489999       0.33333333 </v>
   <v>       0.73588334       0.26411666       0.44444444 </v>
   <v>       0.80510001       0.06921667       0.55555556 </v>
   <v>       0.73588334       0.13843334       0.66666667 </v>
   <v>       0.93078333       0.06921667       0.77777778 </v>
   <v>       0.86156666       0.26411666       0.88888889 </v>
   <v>       0.93078333       0.19489999       0.66666667 </v>
   <v>       0.73588334       0.26411666       0.77777778 </v>
   <v>       0.80510001       0.06921667       0.88888889 </v>
   <v>       0.73588334       0.47176667       0.00000000 </v>
   <v>       0.93078333       0.40255000       0.11111111 </v>
   <v>       0.86156666       0.59745000       0.22222222 </v>
   <v>       0.93078333       0.52823333       0.00000000 </v>
   <v>       0.73588334       0.59745000       0.11111111 </v>
   <v>       0.80510001       0.40255000       0.22222222 </v>
   <v>       0.73588334       0.47176667       0.33333333 </v>
   <v>       0.93078333       0.40255000       0.44444444 </v>
   <v>       0.86156666       0.59745000       0.55555556 </v>
   <v>       0.93078333       0.52823333       0.33333333 </v>
   <v>       0.73588334       0.59745000       0.44444444 </v>
   <v>       0.80510001       0.40255000       0.55555556 </v>
   <v>       0.73588334       0.47176667       0.66666667 </v>
   <v>       0.93078333       0.40255000       0.77777778 </v>
   <v>       0.86156666       0.59745000       0.88888889 </v>
   <v>       0.93078333       0.52823333       0.66666667 </v>
   <v>       0.73588334       0.59745000       0.77777778 </v>
   <v>       0.80510001       0.40255000       0.88888889 </v>
   <v>       0.73588334       0.80510001       0.00000000 </v>
   <v>       0.93078333       0.73588334       0.11111111 </v>
   <v>       0.86156666       0.93078333       0.22222222 </v>
   <v>       0.93078333       0.86156666       0.00000000 </v>
   <v>       0.73588334       0.93078333       0.11111111 </v>
   <v>       0.80510001       0.73588334       0.22222222 </v>
   <v>       0.73588334       0.80510001       0.33333333 </v>
   <v>       0.93078333       0.73588334       0.44444444 </v>
   <v>       0.86156666       0.93078333       0.55555556 </v>
   <v>       0.93078333       0.86156666       0.33333333 </v>
   <v>       0.73588334       0.93078333       0.44444444 </v>
   <v>       0.80510001       0.73588334       0.55555556 </v>
   <v>       0.73588334       0.80510001       0.66666667 </v>
   <v>       0.93078333       0.73588334       0.77777778 </v>
   <v>       0.86156666       0.93078333       0.88888889 </v>
   <v>       0.93078333       0.86156666       0.66666667 </v>
   <v>       0.73588334       0.93078333       0.77777778 </v>
   <v>       0.80510001       0.73588334       0.88888889 </v>
   <v>       0.16666667       0.00000000       0.16666667 </v>
   <v>       0.16666667       0.16666667       0.27777778 </v>
   <v>       0.00000000       0.16666667       0.05555556 </v>
   <v>       0.16666667       0.00000000       0.50000000 </v>
   <v>       0.16666667       0.16666667       0.61111111 </v>
   <v>       0.00000000       0.16666667       0.38888889 </v>
   <v>       0.16666667       0.00000000       0.83333333 </v>
   <v>       0.16666667       0.16666667       0.94444444 </v>
   <v>       0.00000000       0.16666667       0.72222222 </v>
   <v>       0.16666667       0.33333333       0.16666667 </v>
   <v>       0.16666667       0.50000000       0.27777778 </v>
   <v>       0.00000000       0.50000000       0.05555556 </v>
   <v>       0.16666667       0.33333333       0.50000000 </v>
   <v>       0.16666667       0.50000000       0.61111111 </v>
   <v>       0.00000000       0.50000000       0.38888889 </v>
   <v>       0.16666667       0.33333333       0.83333333 </v>
   <v>       0.16666667       0.50000000       0.94444444 </v>
   <v>       0.00000000       0.50000000       0.72222222 </v>
   <v>       0.16666667       0.66666667       0.16666667 </v>
   <v>       0.16666667       0.83333333       0.27777778 </v>
   <v>       0.00000000       0.83333333       0.05555556 </v>
   <v>       0.16666667       0.66666667       0.50000000 </v>
   <v>       0.16666667       0.83333333       0.61111111 </v>
   <v>       0.00000000       0.83333333       0.38888889 </v>
   <v>       0.16666667       0.66666667       0.83333333 </v>
   <v>       0.16666667       0.83333333       0.94444444 </v>
   <v>       0.00000000       0.83333333       0.72222222 </v>
   <v>       0.50000000       0.00000000       0.16666667 </v>
   <v>       0.50000000       0.16666667       0.27777778 </v>
   <v>       0.33333333       0.16666667       0.05555556 </v>
   <v>       0.50000000       0.00000000       0.50000000 </v>
   <v>       0.50000000       0.16666667       0.61111111 </v>
   <v>       0.33333333       0.16666667       0.38888889 </v>
   <v>       0.50000000       0.00000000       0.83333333 </v>
   <v>       0.50000000       0.16666667       0.94444444 </v>
   <v>       0.33333333       0.16666667       0.72222222 </v>
   <v>       0.50000000       0.33333333       0.16666667 </v>
   <v>       0.50000000       0.50000000       0.27777778 </v>
   <v>       0.33333333       0.50000000       0.05555556 </v>
   <v>       0.50000000       0.33333333       0.50000000 </v>
   <v>       0.50000000       0.50000000       0.61111111 </v>
   <v>       0.33333333       0.50000000       0.38888889 </v>
   <v>       0.50000000       0.33333333       0.83333333 </v>
   <v>       0.50000000       0.50000000       0.94444444 </v>
   <v>       0.33333333       0.50000000       0.72222222 </v>
   <v>       0.50000000       0.66666667       0.16666667 </v>
   <v>       0.50000000       0.83333333       0.27777778 </v>
   <v>       0.33333333       0.83333333       0.05555556 </v>
   <v>       0.50000000       0.66666667       0.50000000 </v>
   <v>       0.50000000       0.83333333       0.61111111 </v>
   <v>       0.33333333       0.83333333       0.38888889 </v>
   <v>       0.50000000       0.66666667       0.83333333 </v>
   <v>       0.50000000       0.83333333       0.94444444 </v>
   <v>       0.33333333       0.83333333       0.72222222 </v>
   <v>       0.83333333       0.00000000       0.16666667 </v>
   <v>       0.83333333       0.16666667       0.27777778 </v>
   <v>       0.66666667       0.16666667       0.05555556 </v>
   <v>       0.83333333       0.00000000       0.50000000 </v>
   <v>       0.83333333       0.16666667       0.61111111 </v>
   <v>       0.66666667       0.16666667       0.38888889 </v>
   <v>       0.83333333       0.00000000       0.83333333 </v>
   <v>       0.83333333       0.16666667       0.94444444 </v>
   <v>       0.66666667       0.16666667       0.72222222 </v>
   <v>       0.83333333       0.33333333       0.16666667 </v>
   <v>       0.83333333       0.50000000       0.27777778 </v>
   <v>       0.66666667       0.50000000       0.05555556 </v>
   <v>       0.83333333       0.33333333       0.50000000 </v>
   <v>       0.83333333       0.50000000       0.61111111 </v>
   <v>       0.66666667       0.50000000       0.38888889 </v>
   <v>       0.83333333       0.33333333       0.83333333 </v>
   <v>       0.83333333       0.50000000       0.94444444 </v>
   <v>       0.66666667       0.50000000       0.72222222 </v>
   <v>       0.83333333       0.66666667       0.16666667 </v>
   <v>       0.83333333       0.83333333       0.27777778 </v>
   <v>       0.66666667       0.83333333       0.05555556 </v>
   <v>       0.83333333       0.66666667       0.50000000 </v>
   <v>       0.83333333       0.83333333       0.61111111 </v>
   <v>       0.66666667       0.83333333       0.38888889 </v>
   <v>       0.83333333       0.66666667       0.83333333 </v>
   <v>       0.83333333       0.83333333       0.94444444 </v>
   <v>       0.66666667       0.83333333       0.72222222 </v>
  </varray>
 </structure>
</modeling>
