 243 243   0   0
  0.1311304E+02  0.1499160E-08  0.1499160E-08  0.1637130E-08  0.5000000E-15
   4000.00000000000     
  CAR 
 (Si O2)81  (P1) ~ 3x3x3Supersel (VASP)  
     11.66364903    -21.10470417  301      3.92212559      1.00000000
    -21.105  0.0000E+00  0.0000E+00
    -20.995  0.0000E+00  0.0000E+00
    -20.886  0.0000E+00  0.0000E+00
    -20.777  0.0000E+00  0.0000E+00
    -20.668  0.0000E+00  0.0000E+00
    -20.559  0.0000E+00  0.0000E+00
    -20.449  0.0000E+00  0.0000E+00
    -20.340  0.0000E+00  0.0000E+00
    -20.231  0.0000E+00  0.0000E+00
    -20.122  0.0000E+00  0.0000E+00
    -20.012  0.0000E+00  0.0000E+00
    -19.903  0.2239E-14  0.2452E-15
    -19.794  0.3114E-05  0.3425E-06
    -19.685  0.4348E+00  0.4795E-01
    -19.576  0.1704E+02  0.1927E+01
    -19.466  0.8681E+01  0.2879E+01
    -19.357  0.8154E+01  0.3773E+01
    -19.248  0.1064E+02  0.4938E+01
    -19.139  0.1333E+02  0.6400E+01
    -19.029  0.1553E+02  0.8105E+01
    -18.920  0.1880E+02  0.1017E+02
    -18.811  0.2262E+02  0.1265E+02
    -18.702  0.2624E+02  0.1554E+02
    -18.592  0.3045E+02  0.1888E+02
    -18.483  0.3399E+02  0.2262E+02
    -18.374  0.3728E+02  0.2672E+02
    -18.265  0.4057E+02  0.3119E+02
    -18.156  0.4373E+02  0.3600E+02
    -18.046  0.4828E+02  0.4131E+02
    -17.937  0.5231E+02  0.4707E+02
    -17.828  0.5445E+02  0.5307E+02
    -17.719  0.5791E+02  0.5945E+02
    -17.609  0.6120E+02  0.6619E+02
    -17.500  0.6341E+02  0.7317E+02
    -17.391  0.6584E+02  0.8043E+02
    -17.282  0.6896E+02  0.8803E+02
    -17.173  0.7183E+02  0.9595E+02
    -17.063  0.7506E+02  0.1042E+03
    -16.954  0.7635E+02  0.1126E+03
    -16.845  0.7849E+02  0.1213E+03
    -16.736  0.8030E+02  0.1302E+03
    -16.626  0.8112E+02  0.1391E+03
    -16.517  0.8403E+02  0.1484E+03
    -16.408  0.8506E+02  0.1578E+03
    -16.299  0.8476E+02  0.1671E+03
    -16.189  0.8479E+02  0.1765E+03
    -16.080  0.8463E+02  0.1858E+03
    -15.971  0.8483E+02  0.1952E+03
    -15.862  0.8456E+02  0.2045E+03
    -15.753  0.8314E+02  0.2137E+03
    -15.643  0.8091E+02  0.2226E+03
    -15.534  0.7903E+02  0.2313E+03
    -15.425  0.7611E+02  0.2397E+03
    -15.316  0.7445E+02  0.2480E+03
    -15.206  0.7180E+02  0.2559E+03
    -15.097  0.6723E+02  0.2633E+03
    -14.988  0.6269E+02  0.2703E+03
    -14.879  0.5768E+02  0.2767E+03
    -14.769  0.5418E+02  0.2826E+03
    -14.660  0.4975E+02  0.2882E+03
    -14.551  0.4592E+02  0.2932E+03
    -14.442  0.4127E+02  0.2978E+03
    -14.333  0.3661E+02  0.3019E+03
    -14.223  0.3186E+02  0.3054E+03
    -14.114  0.2797E+02  0.3085E+03
    -14.005  0.2426E+02  0.3112E+03
    -13.896  0.2139E+02  0.3136E+03
    -13.786  0.1848E+02  0.3156E+03
    -13.677  0.1624E+02  0.3174E+03
    -13.568  0.1347E+02  0.3189E+03
    -13.459  0.1112E+02  0.3202E+03
    -13.350  0.8955E+01  0.3212E+03
    -13.240  0.6883E+01  0.3219E+03
    -13.131  0.4964E+01  0.3225E+03
    -13.022  0.4141E+01  0.3229E+03
    -12.913  0.3313E+01  0.3233E+03
    -12.803  0.2049E+01  0.3235E+03
    -12.694  0.1446E+01  0.3237E+03
    -12.585  0.1011E+01  0.3238E+03
    -12.476  0.5710E+00  0.3239E+03
    -12.366  0.5820E+00  0.3239E+03
    -12.257  0.4349E+00  0.3240E+03
    -12.148  0.1385E+00  0.3240E+03
    -12.039  0.7175E-02  0.3240E+03
    -11.930  0.4228E-06  0.3240E+03
    -11.820  0.1483E-14  0.3240E+03
    -11.711  0.0000E+00  0.3240E+03
    -11.602  0.0000E+00  0.3240E+03
    -11.493  0.0000E+00  0.3240E+03
    -11.383  0.0000E+00  0.3240E+03
    -11.274  0.0000E+00  0.3240E+03
    -11.165  0.0000E+00  0.3240E+03
    -11.056  0.0000E+00  0.3240E+03
    -10.947  0.0000E+00  0.3240E+03
    -10.837  0.0000E+00  0.3240E+03
    -10.728  0.0000E+00  0.3240E+03
    -10.619  0.0000E+00  0.3240E+03
    -10.510  0.0000E+00  0.3240E+03
    -10.400  0.0000E+00  0.3240E+03
    -10.291  0.0000E+00  0.3240E+03
    -10.182  0.0000E+00  0.3240E+03
    -10.073  0.0000E+00  0.3240E+03
     -9.963  0.0000E+00  0.3240E+03
     -9.854  0.0000E+00  0.3240E+03
     -9.745  0.0000E+00  0.3240E+03
     -9.636  0.0000E+00  0.3240E+03
     -9.527  0.8149E-17  0.3240E+03
     -9.417  0.6637E-08  0.3240E+03
     -9.308  0.6232E-03  0.3240E+03
     -9.199  0.5748E-01  0.3240E+03
     -9.090  0.2579E+00  0.3240E+03
     -8.980  0.6395E+00  0.3241E+03
     -8.871  0.1639E+01  0.3243E+03
     -8.762  0.3767E+01  0.3247E+03
     -8.653  0.5364E+01  0.3253E+03
     -8.544  0.8012E+01  0.3262E+03
     -8.434  0.1001E+02  0.3273E+03
     -8.325  0.1095E+02  0.3285E+03
     -8.216  0.1522E+02  0.3301E+03
     -8.107  0.1853E+02  0.3322E+03
     -7.997  0.2105E+02  0.3345E+03
     -7.888  0.2383E+02  0.3371E+03
     -7.779  0.2574E+02  0.3400E+03
     -7.670  0.2774E+02  0.3430E+03
     -7.560  0.3073E+02  0.3464E+03
     -7.451  0.3255E+02  0.3500E+03
     -7.342  0.3480E+02  0.3538E+03
     -7.233  0.3609E+02  0.3578E+03
     -7.124  0.3708E+02  0.3619E+03
     -7.014  0.3644E+02  0.3659E+03
     -6.905  0.3748E+02  0.3701E+03
     -6.796  0.3744E+02  0.3742E+03
     -6.687  0.3829E+02  0.3784E+03
     -6.577  0.3848E+02  0.3827E+03
     -6.468  0.3997E+02  0.3871E+03
     -6.359  0.4251E+02  0.3918E+03
     -6.250  0.4256E+02  0.3965E+03
     -6.140  0.4260E+02  0.4012E+03
     -6.031  0.4404E+02  0.4060E+03
     -5.922  0.4478E+02  0.4109E+03
     -5.813  0.4551E+02  0.4160E+03
     -5.704  0.4745E+02  0.4212E+03
     -5.594  0.4891E+02  0.4266E+03
     -5.485  0.4984E+02  0.4321E+03
     -5.376  0.5113E+02  0.4377E+03
     -5.267  0.5255E+02  0.4435E+03
     -5.157  0.5465E+02  0.4496E+03
     -5.048  0.5613E+02  0.4558E+03
     -4.939  0.6008E+02  0.4624E+03
     -4.830  0.6269E+02  0.4693E+03
     -4.721  0.6532E+02  0.4765E+03
     -4.611  0.6812E+02  0.4840E+03
     -4.502  0.7102E+02  0.4919E+03
     -4.393  0.7409E+02  0.5000E+03
     -4.284  0.7665E+02  0.5085E+03
     -4.174  0.7789E+02  0.5171E+03
     -4.065  0.8165E+02  0.5261E+03
     -3.956  0.8360E+02  0.5353E+03
     -3.847  0.8500E+02  0.5447E+03
     -3.737  0.8660E+02  0.5542E+03
     -3.628  0.8682E+02  0.5638E+03
     -3.519  0.8709E+02  0.5734E+03
     -3.410  0.8849E+02  0.5832E+03
     -3.301  0.8867E+02  0.5930E+03
     -3.191  0.9090E+02  0.6030E+03
     -3.082  0.9270E+02  0.6132E+03
     -2.973  0.9466E+02  0.6237E+03
     -2.864  0.9610E+02  0.6343E+03
     -2.754  0.9939E+02  0.6453E+03
     -2.645  0.1039E+03  0.6567E+03
     -2.536  0.1060E+03  0.6684E+03
     -2.427  0.1092E+03  0.6805E+03
     -2.318  0.1141E+03  0.6931E+03
     -2.208  0.1185E+03  0.7061E+03
     -2.099  0.1225E+03  0.7196E+03
     -1.990  0.1260E+03  0.7335E+03
     -1.881  0.1308E+03  0.7480E+03
     -1.771  0.1357E+03  0.7630E+03
     -1.662  0.1390E+03  0.7783E+03
     -1.553  0.1406E+03  0.7938E+03
     -1.444  0.1435E+03  0.8096E+03
     -1.334  0.1466E+03  0.8258E+03
     -1.225  0.1493E+03  0.8423E+03
     -1.116  0.1498E+03  0.8588E+03
     -1.007  0.1514E+03  0.8755E+03
     -0.898  0.1529E+03  0.8924E+03
     -0.788  0.1541E+03  0.9094E+03
     -0.679  0.1567E+03  0.9267E+03
     -0.570  0.1582E+03  0.9442E+03
     -0.461  0.1580E+03  0.9616E+03
     -0.351  0.1569E+03  0.9789E+03
     -0.242  0.1575E+03  0.9963E+03
     -0.133  0.1580E+03  0.1014E+04
     -0.024  0.1576E+03  0.1031E+04
      0.085  0.1565E+03  0.1048E+04
      0.195  0.1548E+03  0.1066E+04
      0.304  0.1531E+03  0.1082E+04
      0.413  0.1501E+03  0.1099E+04
      0.522  0.1458E+03  0.1115E+04
      0.632  0.1434E+03  0.1131E+04
      0.741  0.1397E+03  0.1146E+04
      0.850  0.1346E+03  0.1161E+04
      0.959  0.1293E+03  0.1175E+04
      1.069  0.1223E+03  0.1189E+04
      1.178  0.1165E+03  0.1202E+04
      1.287  0.1094E+03  0.1214E+04
      1.396  0.1014E+03  0.1225E+04
      1.505  0.9094E+02  0.1235E+04
      1.615  0.8440E+02  0.1245E+04
      1.724  0.7782E+02  0.1253E+04
      1.833  0.6908E+02  0.1261E+04
      1.942  0.5976E+02  0.1267E+04
      2.052  0.5209E+02  0.1273E+04
      2.161  0.4363E+02  0.1278E+04
      2.270  0.3706E+02  0.1282E+04
      2.379  0.3130E+02  0.1285E+04
      2.489  0.2611E+02  0.1288E+04
      2.598  0.1950E+02  0.1291E+04
      2.707  0.1410E+02  0.1292E+04
      2.816  0.1063E+02  0.1293E+04
      2.925  0.7502E+01  0.1294E+04
      3.035  0.5398E+01  0.1295E+04
      3.144  0.4225E+01  0.1295E+04
      3.253  0.2985E+01  0.1296E+04
      3.362  0.2021E+01  0.1296E+04
      3.472  0.1475E+01  0.1296E+04
      3.581  0.8803E+00  0.1296E+04
      3.690  0.4015E+00  0.1296E+04
      3.799  0.6485E+00  0.1296E+04
      3.908  0.9970E+00  0.1296E+04
      4.018  0.1563E+01  0.1296E+04
      4.127  0.2407E+01  0.1297E+04
      4.236  0.4163E+01  0.1297E+04
      4.345  0.4466E+01  0.1298E+04
      4.455  0.5118E+01  0.1298E+04
      4.564  0.6215E+01  0.1299E+04
      4.673  0.6668E+01  0.1300E+04
      4.782  0.6175E+01  0.1300E+04
      4.892  0.6951E+01  0.1301E+04
      5.001  0.8688E+01  0.1302E+04
      5.110  0.1094E+02  0.1303E+04
      5.219  0.1289E+02  0.1305E+04
      5.328  0.1405E+02  0.1306E+04
      5.438  0.1489E+02  0.1308E+04
      5.547  0.1768E+02  0.1310E+04
      5.656  0.2061E+02  0.1312E+04
      5.765  0.2175E+02  0.1314E+04
      5.875  0.2269E+02  0.1317E+04
      5.984  0.2408E+02  0.1320E+04
      6.093  0.2582E+02  0.1322E+04
      6.202  0.2729E+02  0.1325E+04
      6.311  0.2939E+02  0.1329E+04
      6.421  0.3045E+02  0.1332E+04
      6.530  0.3184E+02  0.1336E+04
      6.639  0.3276E+02  0.1339E+04
      6.748  0.3662E+02  0.1343E+04
      6.858  0.3712E+02  0.1347E+04
      6.967  0.3824E+02  0.1352E+04
      7.076  0.3976E+02  0.1356E+04
      7.185  0.4270E+02  0.1361E+04
      7.295  0.4494E+02  0.1366E+04
      7.404  0.4543E+02  0.1371E+04
      7.513  0.4760E+02  0.1376E+04
      7.622  0.4969E+02  0.1381E+04
      7.731  0.5272E+02  0.1387E+04
      7.841  0.5414E+02  0.1393E+04
      7.950  0.5488E+02  0.1399E+04
      8.059  0.5840E+02  0.1406E+04
      8.168  0.6135E+02  0.1412E+04
      8.278  0.6375E+02  0.1419E+04
      8.387  0.6391E+02  0.1427E+04
      8.496  0.6828E+02  0.1434E+04
      8.605  0.7039E+02  0.1442E+04
      8.714  0.7293E+02  0.1450E+04
      8.824  0.7386E+02  0.1458E+04
      8.933  0.7730E+02  0.1467E+04
      9.042  0.7765E+02  0.1475E+04
      9.151  0.7949E+02  0.1484E+04
      9.261  0.8150E+02  0.1493E+04
      9.370  0.8406E+02  0.1502E+04
      9.479  0.8543E+02  0.1512E+04
      9.588  0.8645E+02  0.1521E+04
      9.698  0.8380E+02  0.1530E+04
      9.807  0.8263E+02  0.1540E+04
      9.916  0.8087E+02  0.1548E+04
     10.025  0.7843E+02  0.1557E+04
     10.134  0.6761E+02  0.1565E+04
     10.244  0.3067E+02  0.1568E+04
     10.353  0.4729E+00  0.1568E+04
     10.462  0.3153E-05  0.1568E+04
     10.571  0.1724E-14  0.1568E+04
     10.681  0.0000E+00  0.1568E+04
     10.790  0.0000E+00  0.1568E+04
     10.899  0.0000E+00  0.1568E+04
     11.008  0.0000E+00  0.1568E+04
     11.118  0.0000E+00  0.1568E+04
     11.227  0.0000E+00  0.1568E+04
     11.336  0.0000E+00  0.1568E+04
     11.445  0.0000E+00  0.1568E+04
     11.554  0.0000E+00  0.1568E+04
     11.664  0.0000E+00  0.1568E+04
     11.73278982    -21.09209756  301      3.86849389      1.00000000
    -21.092  0.0000E+00  0.0000E+00
    -20.983  0.0000E+00  0.0000E+00
    -20.873  0.0000E+00  0.0000E+00
    -20.764  0.0000E+00  0.0000E+00
    -20.654  0.0000E+00  0.0000E+00
    -20.545  0.0000E+00  0.0000E+00
    -20.436  0.0000E+00  0.0000E+00
    -20.326  0.0000E+00  0.0000E+00
    -20.217  0.0000E+00  0.0000E+00
    -20.107  0.0000E+00  0.0000E+00
    -19.998  0.0000E+00  0.0000E+00
    -19.889  0.3044E-17  0.3331E-18
    -19.779  0.3749E-08  0.4102E-09
    -19.670  0.4470E-03  0.4891E-04
    -19.560  0.1546E-01  0.1741E-02
    -19.451  0.1348E-01  0.3216E-02
    -19.341  0.2623E-01  0.6086E-02
    -19.232  0.1636E-01  0.7876E-02
    -19.123  0.2128E-02  0.8109E-02
    -19.013  0.2912E-01  0.1130E-01
    -18.904  0.2281E-01  0.1379E-01
    -18.794  0.2855E-01  0.1692E-01
    -18.685  0.4809E-01  0.2218E-01
    -18.576  0.6300E-01  0.2907E-01
    -18.466  0.4235E-01  0.3370E-01
    -18.357  0.3106E-01  0.3710E-01
    -18.247  0.4379E-01  0.4189E-01
    -18.138  0.7174E-01  0.4974E-01
    -18.028  0.5929E-01  0.5623E-01
    -17.919  0.7093E-01  0.6399E-01
    -17.810  0.7691E-01  0.7241E-01
    -17.700  0.7778E-01  0.8092E-01
    -17.591  0.6734E-01  0.8828E-01
    -17.481  0.5892E-01  0.9473E-01
    -17.372  0.4459E-01  0.9961E-01
    -17.263  0.9314E-01  0.1098E+00
    -17.153  0.6315E-01  0.1167E+00
    -17.044  0.6307E-01  0.1236E+00
    -16.934  0.6629E-01  0.1309E+00
    -16.825  0.7075E-01  0.1386E+00
    -16.715  0.1298E+00  0.1528E+00
    -16.606  0.9582E-01  0.1633E+00
    -16.497  0.7785E-01  0.1718E+00
    -16.387  0.6881E-01  0.1793E+00
    -16.278  0.9155E-01  0.1894E+00
    -16.168  0.8994E-01  0.1992E+00
    -16.059  0.6828E-01  0.2067E+00
    -15.950  0.7807E-01  0.2152E+00
    -15.840  0.8699E-01  0.2247E+00
    -15.731  0.1048E+00  0.2362E+00
    -15.621  0.9718E-01  0.2468E+00
    -15.512  0.9011E-01  0.2567E+00
    -15.402  0.3677E-01  0.2607E+00
    -15.293  0.5639E-01  0.2669E+00
    -15.184  0.3208E-01  0.2704E+00
    -15.074  0.4175E-01  0.2750E+00
    -14.965  0.4759E-01  0.2802E+00
    -14.855  0.5519E-01  0.2862E+00
    -14.746  0.1972E-01  0.2884E+00
    -14.637  0.6188E-01  0.2951E+00
    -14.527  0.6206E-01  0.3019E+00
    -14.418  0.2508E-01  0.3047E+00
    -14.308  0.3855E-01  0.3089E+00
    -14.199  0.2716E-01  0.3119E+00
    -14.089  0.1795E-01  0.3138E+00
    -13.980  0.1682E-02  0.3140E+00
    -13.871  0.1161E-06  0.3140E+00
    -13.761  0.1510E-02  0.3142E+00
    -13.652  0.3366E-01  0.3178E+00
    -13.542  0.2009E-01  0.3200E+00
    -13.433  0.1665E-01  0.3219E+00
    -13.324  0.1203E-02  0.3220E+00
    -13.214  0.3818E-07  0.3220E+00
    -13.105  0.1471E-15  0.3220E+00
    -12.995  0.1249E-07  0.3220E+00
    -12.886  0.7561E-03  0.3221E+00
    -12.776  0.1593E-01  0.3238E+00
    -12.667  0.1589E-02  0.3240E+00
    -12.558  0.7687E-07  0.3240E+00
    -12.448  0.3998E-15  0.3240E+00
    -12.339  0.0000E+00  0.3240E+00
    -12.229  0.0000E+00  0.3240E+00
    -12.120  0.0000E+00  0.3240E+00
    -12.011  0.0000E+00  0.3240E+00
    -11.901  0.0000E+00  0.3240E+00
    -11.792  0.0000E+00  0.3240E+00
    -11.682  0.0000E+00  0.3240E+00
    -11.573  0.0000E+00  0.3240E+00
    -11.463  0.0000E+00  0.3240E+00
    -11.354  0.0000E+00  0.3240E+00
    -11.245  0.0000E+00  0.3240E+00
    -11.135  0.0000E+00  0.3240E+00
    -11.026  0.0000E+00  0.3240E+00
    -10.916  0.0000E+00  0.3240E+00
    -10.807  0.0000E+00  0.3240E+00
    -10.698  0.0000E+00  0.3240E+00
    -10.588  0.0000E+00  0.3240E+00
    -10.479  0.0000E+00  0.3240E+00
    -10.369  0.0000E+00  0.3240E+00
    -10.260  0.0000E+00  0.3240E+00
    -10.150  0.0000E+00  0.3240E+00
    -10.041  0.0000E+00  0.3240E+00
     -9.932  0.0000E+00  0.3240E+00
     -9.822  0.0000E+00  0.3240E+00
     -9.713  0.0000E+00  0.3240E+00
     -9.603  0.0000E+00  0.3240E+00
     -9.494  0.0000E+00  0.3240E+00
     -9.385  0.0000E+00  0.3240E+00
     -9.275  0.0000E+00  0.3240E+00
     -9.166  0.0000E+00  0.3240E+00
     -9.056  0.3905E-09  0.3240E+00
     -8.947  0.1563E-03  0.3240E+00
     -8.837  0.1376E-01  0.3255E+00
     -8.728  0.4382E-02  0.3260E+00
     -8.619  0.9228E-02  0.3270E+00
     -8.509  0.1066E-01  0.3282E+00
     -8.400  0.2916E-01  0.3314E+00
     -8.290  0.1018E-01  0.3325E+00
     -8.181  0.1372E-01  0.3340E+00
     -8.072  0.3898E-02  0.3344E+00
     -7.962  0.3073E-01  0.3378E+00
     -7.853  0.2144E-01  0.3401E+00
     -7.743  0.3579E-01  0.3440E+00
     -7.634  0.3201E-01  0.3475E+00
     -7.524  0.3899E-01  0.3518E+00
     -7.415  0.2346E-01  0.3544E+00
     -7.306  0.3987E-01  0.3587E+00
     -7.196  0.2677E-01  0.3617E+00
     -7.087  0.3812E-01  0.3658E+00
     -6.977  0.5454E-01  0.3718E+00
     -6.868  0.3997E-01  0.3762E+00
     -6.759  0.5240E-01  0.3819E+00
     -6.649  0.3577E-01  0.3858E+00
     -6.540  0.2319E-01  0.3884E+00
     -6.430  0.5232E-01  0.3941E+00
     -6.321  0.5124E-01  0.3997E+00
     -6.211  0.5543E-01  0.4058E+00
     -6.102  0.3670E-01  0.4098E+00
     -5.993  0.4718E-01  0.4149E+00
     -5.883  0.4738E-01  0.4201E+00
     -5.774  0.5592E-01  0.4262E+00
     -5.664  0.4426E-01  0.4311E+00
     -5.555  0.3784E-01  0.4352E+00
     -5.446  0.4262E-01  0.4399E+00
     -5.336  0.3884E-01  0.4441E+00
     -5.227  0.5514E-01  0.4502E+00
     -5.117  0.6491E-01  0.4573E+00
     -5.008  0.6377E-01  0.4642E+00
     -4.898  0.5983E-01  0.4708E+00
     -4.789  0.6984E-01  0.4784E+00
     -4.680  0.6336E-01  0.4854E+00
     -4.570  0.8159E-01  0.4943E+00
     -4.461  0.8051E-01  0.5031E+00
     -4.351  0.8221E-01  0.5121E+00
     -4.242  0.6539E-01  0.5192E+00
     -4.133  0.9324E-01  0.5295E+00
     -4.023  0.7099E-01  0.5372E+00
     -3.914  0.8488E-01  0.5465E+00
     -3.804  0.9397E-01  0.5568E+00
     -3.695  0.8491E-01  0.5661E+00
     -3.585  0.9198E-01  0.5761E+00
     -3.476  0.8660E-01  0.5856E+00
     -3.367  0.8263E-01  0.5947E+00
     -3.257  0.8432E-01  0.6039E+00
     -3.148  0.7906E-01  0.6125E+00
     -3.038  0.9964E-01  0.6234E+00
     -2.929  0.8260E-01  0.6325E+00
     -2.820  0.1177E+00  0.6454E+00
     -2.710  0.1143E+00  0.6579E+00
     -2.601  0.1138E+00  0.6703E+00
     -2.491  0.1205E+00  0.6835E+00
     -2.382  0.1038E+00  0.6949E+00
     -2.272  0.1203E+00  0.7080E+00
     -2.163  0.1118E+00  0.7203E+00
     -2.054  0.1323E+00  0.7347E+00
     -1.944  0.1331E+00  0.7493E+00
     -1.835  0.1483E+00  0.7655E+00
     -1.725  0.1317E+00  0.7799E+00
     -1.616  0.1472E+00  0.7960E+00
     -1.507  0.1507E+00  0.8125E+00
     -1.397  0.1478E+00  0.8287E+00
     -1.288  0.1556E+00  0.8457E+00
     -1.178  0.1559E+00  0.8628E+00
     -1.069  0.1290E+00  0.8769E+00
     -0.959  0.1453E+00  0.8928E+00
     -0.850  0.1413E+00  0.9083E+00
     -0.741  0.1508E+00  0.9248E+00
     -0.631  0.1726E+00  0.9436E+00
     -0.522  0.1483E+00  0.9599E+00
     -0.412  0.1559E+00  0.9769E+00
     -0.303  0.1594E+00  0.9944E+00
     -0.194  0.1697E+00  0.1013E+01
     -0.084  0.1773E+00  0.1032E+01
      0.025  0.1580E+00  0.1050E+01
      0.135  0.1473E+00  0.1066E+01
      0.244  0.1381E+00  0.1081E+01
      0.353  0.1527E+00  0.1098E+01
      0.463  0.1469E+00  0.1114E+01
      0.572  0.1383E+00  0.1129E+01
      0.682  0.1364E+00  0.1144E+01
      0.791  0.1389E+00  0.1159E+01
      0.901  0.1463E+00  0.1175E+01
      1.010  0.1485E+00  0.1191E+01
      1.119  0.1281E+00  0.1205E+01
      1.229  0.9186E-01  0.1215E+01
      1.338  0.7659E-01  0.1224E+01
      1.448  0.7138E-01  0.1231E+01
      1.557  0.9086E-01  0.1241E+01
      1.666  0.7056E-01  0.1249E+01
      1.776  0.5193E-01  0.1255E+01
      1.885  0.6515E-01  0.1262E+01
      1.995  0.5282E-01  0.1268E+01
      2.104  0.5502E-01  0.1274E+01
      2.214  0.5040E-01  0.1279E+01
      2.323  0.7401E-02  0.1280E+01
      2.432  0.2056E-01  0.1282E+01
      2.542  0.3155E-01  0.1286E+01
      2.651  0.3666E-01  0.1290E+01
      2.761  0.1894E-01  0.1292E+01
      2.870  0.2003E-02  0.1292E+01
      2.979  0.1371E-01  0.1294E+01
      3.089  0.4419E-02  0.1294E+01
      3.198  0.1348E-05  0.1294E+01
      3.308  0.5103E-13  0.1294E+01
      3.417  0.1057E-07  0.1294E+01
      3.527  0.7040E-03  0.1294E+01
      3.636  0.1589E-01  0.1296E+01
      3.745  0.1688E-02  0.1296E+01
      3.855  0.8965E-07  0.1296E+01
      3.964  0.5155E-15  0.1296E+01
      4.074  0.0000E+00  0.1296E+01
      4.183  0.0000E+00  0.1296E+01
      4.292  0.2776E-09  0.1296E+01
      4.402  0.1326E-03  0.1296E+01
      4.511  0.1343E-01  0.1297E+01
      4.621  0.4710E-02  0.1298E+01
      4.730  0.2168E-03  0.1298E+01
      4.840  0.1451E-01  0.1300E+01
      4.949  0.1923E-01  0.1302E+01
      5.058  0.2021E-01  0.1304E+01
      5.168  0.1225E-01  0.1305E+01
      5.277  0.2046E-01  0.1308E+01
      5.387  0.4513E-02  0.1308E+01
      5.496  0.5896E-03  0.1308E+01
      5.605  0.1610E-01  0.1310E+01
      5.715  0.1774E-01  0.1312E+01
      5.824  0.2677E-01  0.1315E+01
      5.934  0.2473E-01  0.1317E+01
      6.043  0.7804E-02  0.1318E+01
      6.153  0.2108E-01  0.1321E+01
      6.262  0.1348E-01  0.1322E+01
      6.371  0.2169E-01  0.1324E+01
      6.481  0.3608E-01  0.1328E+01
      6.590  0.3277E-01  0.1332E+01
      6.700  0.3471E-01  0.1336E+01
      6.809  0.3834E-01  0.1340E+01
      6.918  0.5036E-01  0.1345E+01
      7.028  0.2762E-01  0.1348E+01
      7.137  0.2730E-01  0.1351E+01
      7.247  0.4042E-01  0.1356E+01
      7.356  0.6216E-01  0.1363E+01
      7.466  0.3649E-01  0.1367E+01
      7.575  0.3459E-01  0.1370E+01
      7.684  0.5758E-01  0.1377E+01
      7.794  0.5424E-01  0.1383E+01
      7.903  0.5121E-01  0.1388E+01
      8.013  0.6238E-01  0.1395E+01
      8.122  0.7238E-01  0.1403E+01
      8.231  0.6068E-01  0.1410E+01
      8.341  0.8001E-01  0.1418E+01
      8.450  0.6614E-01  0.1426E+01
      8.560  0.7610E-01  0.1434E+01
      8.669  0.7395E-01  0.1442E+01
      8.779  0.8794E-01  0.1452E+01
      8.888  0.8126E-01  0.1461E+01
      8.997  0.8014E-01  0.1469E+01
      9.107  0.9458E-01  0.1480E+01
      9.216  0.7238E-01  0.1488E+01
      9.326  0.6990E-01  0.1495E+01
      9.435  0.8795E-01  0.1505E+01
      9.544  0.6996E-01  0.1513E+01
      9.654  0.7496E-01  0.1521E+01
      9.763  0.9763E-01  0.1531E+01
      9.873  0.6877E-01  0.1539E+01
      9.982  0.7182E-01  0.1547E+01
     10.092  0.7396E-01  0.1555E+01
     10.201  0.9006E-01  0.1565E+01
     10.310  0.2895E-01  0.1568E+01
     10.420  0.4546E-03  0.1568E+01
     10.529  0.3750E-08  0.1568E+01
     10.639  0.4059E-17  0.1568E+01
     10.748  0.0000E+00  0.1568E+01
     10.857  0.0000E+00  0.1568E+01
     10.967  0.0000E+00  0.1568E+01
     11.076  0.0000E+00  0.1568E+01
     11.186  0.0000E+00  0.1568E+01
     11.295  0.0000E+00  0.1568E+01
     11.405  0.0000E+00  0.1568E+01
     11.514  0.0000E+00  0.1568E+01
     11.623  0.0000E+00  0.1568E+01
     11.733  0.0000E+00  0.1568E+01
