  243  243 1000    1
  0.1311304E+02  0.1499160E-08  0.1499160E-08  0.1637130E-08  0.5000000E-15
   4000.00000000000     
  CAR 
 (Si O2)81  (P1) ~ 3x3x3Supersel (VASP)  
   1296      1    784
 
  0.0000000E+00  0.0000000E+00  0.0000000E+00  0.1000000E+01
    1      -19.600057
    2      -19.444814
    3      -19.417920
    4      -19.286399
    5      -19.063894
    6      -19.033740
    7      -18.918585
    8      -18.877960
    9      -18.789843
   10      -18.717586
   11      -18.688730
   12      -18.686765
   13      -18.653800
   14      -18.605921
   15      -18.586292
   16      -18.530158
   17      -18.506494
   18      -18.386350
   19      -18.362212
   20      -18.324950
   21      -18.265259
   22      -18.218162
   23      -18.187957
   24      -18.169004
   25      -18.137734
   26      -18.126691
   27      -18.116516
   28      -18.037464
   29      -18.017106
   30      -17.986577
   31      -17.959108
   32      -17.940742
   33      -17.902334
   34      -17.864525
   35      -17.856275
   36      -17.828563
   37      -17.810779
   38      -17.768192
   39      -17.733357
   40      -17.721383
   41      -17.699752
   42      -17.683912
   43      -17.655900
   44      -17.620216
   45      -17.570659
   46      -17.542611
   47      -17.507976
   48      -17.487554
   49      -17.428744
   50      -17.367983
   51      -17.344189
   52      -17.331103
   53      -17.313175
   54      -17.289142
   55      -17.281622
   56      -17.260379
   57      -17.202040
   58      -17.185218
   59      -17.156607
   60      -17.098228
   61      -17.081331
   62      -17.043571
   63      -17.019877
   64      -17.013470
   65      -16.990522
   66      -16.922063
   67      -16.890998
   68      -16.868778
   69      -16.832805
   70      -16.807582
   71      -16.802979
   72      -16.783190
   73      -16.779845
   74      -16.756344
   75      -16.751454
   76      -16.737435
   77      -16.720013
   78      -16.701102
   79      -16.665206
   80      -16.651788
   81      -16.632394
   82      -16.623707
   83      -16.578144
   84      -16.557060
   85      -16.536590
   86      -16.520854
   87      -16.476506
   88      -16.436391
   89      -16.403114
   90      -16.390283
   91      -16.370564
   92      -16.354655
   93      -16.327776
   94      -16.289885
   95      -16.276501
   96      -16.270176
   97      -16.246621
   98      -16.216146
   99      -16.196610
  100      -16.170755
  101      -16.152714
  102      -16.107562
  103      -16.093059
  104      -16.041406
  105      -16.029577
  106      -16.005133
  107      -15.976345
  108      -15.964864
  109      -15.908065
  110      -15.902593
  111      -15.876314
  112      -15.851253
  113      -15.842748
  114      -15.816657
  115      -15.797823
  116      -15.778435
  117      -15.765963
  118      -15.737131
  119      -15.722196
  120      -15.702072
  121      -15.698563
  122      -15.648249
  123      -15.628190
  124      -15.615459
  125      -15.613235
  126      -15.591571
  127      -15.551355
  128      -15.545324
  129      -15.508406
  130      -15.482203
  131      -15.378515
  132      -15.356017
  133      -15.330202
  134      -15.302854
  135      -15.220654
  136      -15.153182
  137      -15.146347
  138      -15.053120
  139      -15.046185
  140      -15.002145
  141      -14.929184
  142      -14.913204
  143      -14.886253
  144      -14.842717
  145      -14.710145
  146      -14.674146
  147      -14.650041
  148      -14.636576
  149      -14.632487
  150      -14.591006
  151      -14.566347
  152      -14.487364
  153      -14.399676
  154      -14.359322
  155      -14.307303
  156      -14.241927
  157      -14.136421
  158      -13.703351
  159      -13.695583
  160      -13.607347
  161      -13.486259
  162      -12.824532
  163       -8.862587
  164       -8.619154
  165       -8.460395
  166       -8.421209
  167       -8.265564
  168       -8.039247
  169       -8.001977
  170       -7.896104
  171       -7.811447
  172       -7.793742
  173       -7.701169
  174       -7.650916
  175       -7.589748
  176       -7.545161
  177       -7.496352
  178       -7.379576
  179       -7.351968
  180       -7.303052
  181       -7.221410
  182       -7.143676
  183       -7.088375
  184       -7.072161
  185       -7.042052
  186       -7.004629
  187       -6.941324
  188       -6.885070
  189       -6.852028
  190       -6.819802
  191       -6.781773
  192       -6.731237
  193       -6.694459
  194       -6.576447
  195       -6.519045
  196       -6.479745
  197       -6.444899
  198       -6.423005
  199       -6.371557
  200       -6.323887
  201       -6.306742
  202       -6.258181
  203       -6.231808
  204       -6.187812
  205       -6.119932
  206       -6.065924
  207       -6.041967
  208       -5.977724
  209       -5.966063
  210       -5.894413
  211       -5.868448
  212       -5.836938
  213       -5.803941
  214       -5.755513
  215       -5.715519
  216       -5.672399
  217       -5.594467
  218       -5.567106
  219       -5.506272
  220       -5.483414
  221       -5.404090
  222       -5.351907
  223       -5.322942
  224       -5.281231
  225       -5.243837
  226       -5.216322
  227       -5.168672
  228       -5.151982
  229       -5.142383
  230       -5.066905
  231       -5.050226
  232       -5.022272
  233       -5.008722
  234       -4.963572
  235       -4.927458
  236       -4.890191
  237       -4.858736
  238       -4.851402
  239       -4.804666
  240       -4.787962
  241       -4.745986
  242       -4.706342
  243       -4.678937
  244       -4.655171
  245       -4.635830
  246       -4.632329
  247       -4.583001
  248       -4.559242
  249       -4.526286
  250       -4.523201
  251       -4.481044
  252       -4.468138
  253       -4.433756
  254       -4.407371
  255       -4.393848
  256       -4.376337
  257       -4.331678
  258       -4.318571
  259       -4.257250
  260       -4.240861
  261       -4.217080
  262       -4.204326
  263       -4.195244
  264       -4.162983
  265       -4.131428
  266       -4.126519
  267       -4.077359
  268       -4.049950
  269       -4.028593
  270       -3.996837
  271       -3.974802
  272       -3.951590
  273       -3.920429
  274       -3.910660
  275       -3.882684
  276       -3.874825
  277       -3.858776
  278       -3.842137
  279       -3.792574
  280       -3.772304
  281       -3.751407
  282       -3.726832
  283       -3.704463
  284       -3.684665
  285       -3.659514
  286       -3.646472
  287       -3.638890
  288       -3.590815
  289       -3.574132
  290       -3.556431
  291       -3.528618
  292       -3.494226
  293       -3.483841
  294       -3.460885
  295       -3.444838
  296       -3.427575
  297       -3.373358
  298       -3.361337
  299       -3.344668
  300       -3.321120
  301       -3.278966
  302       -3.264954
  303       -3.246465
  304       -3.234782
  305       -3.186288
  306       -3.163978
  307       -3.143567
  308       -3.113951
  309       -3.097168
  310       -3.083066
  311       -3.060695
  312       -3.048271
  313       -3.032894
  314       -2.991256
  315       -2.956398
  316       -2.938656
  317       -2.931635
  318       -2.896344
  319       -2.884396
  320       -2.870001
  321       -2.859354
  322       -2.841079
  323       -2.815756
  324       -2.811009
  325       -2.785208
  326       -2.779771
  327       -2.756437
  328       -2.738279
  329       -2.705999
  330       -2.698769
  331       -2.688555
  332       -2.671267
  333       -2.650613
  334       -2.615287
  335       -2.605042
  336       -2.593056
  337       -2.579197
  338       -2.570336
  339       -2.564829
  340       -2.526722
  341       -2.509517
  342       -2.503420
  343       -2.486815
  344       -2.449242
  345       -2.422574
  346       -2.419840
  347       -2.396368
  348       -2.385327
  349       -2.360797
  350       -2.347530
  351       -2.319936
  352       -2.312212
  353       -2.306615
  354       -2.287072
  355       -2.279220
  356       -2.222469
  357       -2.217551
  358       -2.209580
  359       -2.185677
  360       -2.171440
  361       -2.163738
  362       -2.137581
  363       -2.126403
  364       -2.105004
  365       -2.098674
  366       -2.086398
  367       -2.066716
  368       -2.061903
  369       -2.028269
  370       -2.014785
  371       -2.004060
  372       -1.993556
  373       -1.970771
  374       -1.959442
  375       -1.944927
  376       -1.933239
  377       -1.913652
  378       -1.906107
  379       -1.894744
  380       -1.881880
  381       -1.871637
  382       -1.852855
  383       -1.841440
  384       -1.828724
  385       -1.805153
  386       -1.796269
  387       -1.769706
  388       -1.749507
  389       -1.734305
  390       -1.727667
  391       -1.715566
  392       -1.707621
  393       -1.701253
  394       -1.695419
  395       -1.669680
  396       -1.649777
  397       -1.642562
  398       -1.625549
  399       -1.604751
  400       -1.593774
  401       -1.577607
  402       -1.560389
  403       -1.553531
  404       -1.541703
  405       -1.521673
  406       -1.519701
  407       -1.502698
  408       -1.497009
  409       -1.484223
  410       -1.465341
  411       -1.445547
  412       -1.429169
  413       -1.414310
  414       -1.406354
  415       -1.399274
  416       -1.392879
  417       -1.368132
  418       -1.347739
  419       -1.342069
  420       -1.330069
  421       -1.314233
  422       -1.298774
  423       -1.291355
  424       -1.273781
  425       -1.268726
  426       -1.264248
  427       -1.245164
  428       -1.239502
  429       -1.231219
  430       -1.201333
  431       -1.189872
  432       -1.180141
  433       -1.168250
  434       -1.138690
  435       -1.125881
  436       -1.118151
  437       -1.106094
  438       -1.079737
  439       -1.063624
  440       -1.049906
  441       -1.041721
  442       -1.021140
  443       -1.012500
  444       -1.000511
  445       -0.984292
  446       -0.968571
  447       -0.959000
  448       -0.946504
  449       -0.927763
  450       -0.921215
  451       -0.906142
  452       -0.897062
  453       -0.873284
  454       -0.851354
  455       -0.841949
  456       -0.828109
  457       -0.823511
  458       -0.798317
  459       -0.795667
  460       -0.770141
  461       -0.766718
  462       -0.747581
  463       -0.739604
  464       -0.726357
  465       -0.717267
  466       -0.698800
  467       -0.690891
  468       -0.680380
  469       -0.666724
  470       -0.658262
  471       -0.651045
  472       -0.642011
  473       -0.631326
  474       -0.605694
  475       -0.597428
  476       -0.574765
  477       -0.571840
  478       -0.559544
  479       -0.549771
  480       -0.525137
  481       -0.509195
  482       -0.498878
  483       -0.486331
  484       -0.476128
  485       -0.450709
  486       -0.443017
  487       -0.442731
  488       -0.434124
  489       -0.408714
  490       -0.401429
  491       -0.391656
  492       -0.376380
  493       -0.345508
  494       -0.334332
  495       -0.328750
  496       -0.324461
  497       -0.310107
  498       -0.305128
  499       -0.289876
  500       -0.284193
  501       -0.262855
  502       -0.248539
  503       -0.241640
  504       -0.232164
  505       -0.221508
  506       -0.210199
  507       -0.190486
  508       -0.177989
  509       -0.162938
  510       -0.157417
  511       -0.144495
  512       -0.134980
  513       -0.127307
  514       -0.112213
  515       -0.106147
  516       -0.102487
  517       -0.086069
  518       -0.066274
  519       -0.054365
  520       -0.040523
  521       -0.023453
  522       -0.014747
  523       -0.007741
  524        0.010837
  525        0.020846
  526        0.036702
  527        0.049820
  528        0.056439
  529        0.063325
  530        0.076371
  531        0.101594
  532        0.110821
  533        0.128069
  534        0.141295
  535        0.165883
  536        0.181025
  537        0.188523
  538        0.203438
  539        0.206546
  540        0.235274
  541        0.246703
  542        0.259906
  543        0.281170
  544        0.288308
  545        0.293752
  546        0.300248
  547        0.320103
  548        0.324578
  549        0.357847
  550        0.365046
  551        0.382785
  552        0.389789
  553        0.402930
  554        0.411308
  555        0.431315
  556        0.442702
  557        0.456722
  558        0.473596
  559        0.492371
  560        0.498985
  561        0.515750
  562        0.523528
  563        0.537562
  564        0.553357
  565        0.582232
  566        0.591477
  567        0.603493
  568        0.619604
  569        0.635722
  570        0.656893
  571        0.663002
  572        0.677023
  573        0.678764
  574        0.714709
  575        0.717523
  576        0.729551
  577        0.749246
  578        0.766011
  579        0.782359
  580        0.795074
  581        0.802374
  582        0.824521
  583        0.831368
  584        0.840477
  585        0.849357
  586        0.866907
  587        0.898228
  588        0.907944
  589        0.913045
  590        0.920064
  591        0.948243
  592        0.954126
  593        0.969955
  594        0.988164
  595        0.995130
  596        1.003441
  597        1.021168
  598        1.035245
  599        1.048854
  600        1.066132
  601        1.074388
  602        1.094772
  603        1.122872
  604        1.133270
  605        1.153009
  606        1.183408
  607        1.194599
  608        1.224693
  609        1.255726
  610        1.273509
  611        1.297818
  612        1.341273
  613        1.358132
  614        1.367421
  615        1.415653
  616        1.441055
  617        1.476374
  618        1.494669
  619        1.514495
  620        1.544372
  621        1.548116
  622        1.572999
  623        1.583704
  624        1.615166
  625        1.668102
  626        1.704960
  627        1.756085
  628        1.779543
  629        1.806074
  630        1.845729
  631        1.857155
  632        1.905754
  633        1.960020
  634        1.981569
  635        2.013110
  636        2.051706
  637        2.095457
  638        2.127093
  639        2.159484
  640        2.197841
  641        2.412295
  642        2.440160
  643        2.532707
  644        2.566815
  645        2.616517
  646        2.715597
  647        2.954723
  648        3.589083
  649        4.488326
  650        4.810208
  651        4.923199
  652        4.996252
  653        5.156502
  654        5.253007
  655        5.561459
  656        5.678437
  657        5.779300
  658        5.829245
  659        5.914905
  660        6.083284
  661        6.170425
  662        6.332007
  663        6.389764
  664        6.434602
  665        6.504346
  666        6.548394
  667        6.636642
  668        6.683654
  669        6.725586
  670        6.796940
  671        6.827265
  672        6.871749
  673        6.907096
  674        6.948727
  675        7.052164
  676        7.130244
  677        7.173474
  678        7.230333
  679        7.275145
  680        7.305725
  681        7.317699
  682        7.360874
  683        7.397612
  684        7.478384
  685        7.551194
  686        7.597730
  687        7.607257
  688        7.635895
  689        7.691527
  690        7.740707
  691        7.766933
  692        7.789555
  693        7.851852
  694        7.855320
  695        7.925737
  696        7.968411
  697        7.982388
  698        8.001538
  699        8.047994
  700        8.065305
  701        8.086231
  702        8.119653
  703        8.150893
  704        8.201409
  705        8.222780
  706        8.244386
  707        8.281873
  708        8.315012
  709        8.316546
  710        8.334065
  711        8.375936
  712        8.427109
  713        8.444507
  714        8.453810
  715        8.503920
  716        8.530935
  717        8.534296
  718        8.570583
  719        8.605873
  720        8.629633
  721        8.655136
  722        8.683617
  723        8.707302
  724        8.729058
  725        8.733532
  726        8.767979
  727        8.796449
  728        8.827956
  729        8.836149
  730        8.863889
  731        8.901672
  732        8.912050
  733        8.941913
  734        8.969507
  735        9.003218
  736        9.023797
  737        9.030284
  738        9.046427
  739        9.056183
  740        9.094842
  741        9.128398
  742        9.154398
  743        9.185118
  744        9.212816
  745        9.217312
  746        9.285204
  747        9.310271
  748        9.316695
  749        9.336692
  750        9.372753
  751        9.392567
  752        9.416818
  753        9.422748
  754        9.466223
  755        9.488398
  756        9.503696
  757        9.564173
  758        9.577911
  759        9.622229
  760        9.639680
  761        9.657779
  762        9.675086
  763        9.689905
  764        9.718462
  765        9.730376
  766        9.754963
  767        9.778999
  768        9.813488
  769        9.829195
  770        9.873927
  771        9.917129
  772        9.930051
  773        9.964906
  774        9.977266
  775       10.006351
  776       10.048688
  777       10.076476
  778       10.098160
  779       10.112977
  780       10.126645
  781       10.148596
  782       10.179693
  783       10.189188
  784       10.240749
