 243 243   0   0
  0.1311381E+02  0.1499190E-08  0.1499190E-08  0.1637160E-08  0.5000000E-15
  1.000000000000000E-004
  CAR 
 (Si O2)81  (P1) ~ Ciellie_MCM41 (MD     
     12.81803426    -20.33122604  301      1.11910781      1.00000000
    -20.331  0.0000E+00  0.0000E+00
    -20.221  0.0000E+00  0.0000E+00
    -20.110  0.0000E+00  0.0000E+00
    -20.000  0.0000E+00  0.0000E+00
    -19.889  0.0000E+00  0.0000E+00
    -19.779  0.0000E+00  0.0000E+00
    -19.668  0.0000E+00  0.0000E+00
    -19.558  0.0000E+00  0.0000E+00
    -19.447  0.0000E+00  0.0000E+00
    -19.337  0.0000E+00  0.0000E+00
    -19.226  0.0000E+00  0.0000E+00
    -19.116  0.1661E-16  0.1835E-17
    -19.005  0.6019E-07  0.6651E-08
    -18.895  0.2642E-01  0.2919E-02
    -18.784  0.6399E+01  0.7100E+00
    -18.674  0.3171E+02  0.4213E+01
    -18.563  0.5355E+02  0.1013E+02
    -18.453  0.7972E+02  0.1894E+02
    -18.342  0.1563E+03  0.3621E+02
    -18.232  0.1601E+03  0.5390E+02
    -18.121  0.3071E+02  0.5730E+02
    -18.011  0.4199E+02  0.6194E+02
    -17.900  0.1156E+03  0.7471E+02
    -17.790  0.1797E+03  0.9457E+02
    -17.679  0.6460E+02  0.1017E+03
    -17.569  0.3154E+02  0.1052E+03
    -17.458  0.2546E+02  0.1080E+03
    -17.348  0.6564E+02  0.1153E+03
    -17.237  0.1989E+03  0.1372E+03
    -17.127  0.9222E+02  0.1474E+03
    -17.016  0.5119E+02  0.1531E+03
    -16.906  0.3591E+02  0.1571E+03
    -16.795  0.2512E+02  0.1598E+03
    -16.685  0.2069E+03  0.1827E+03
    -16.574  0.1229E+04  0.3185E+03
    -16.464  0.5000E+02  0.3240E+03
    -16.353  0.1376E-02  0.3240E+03
    -16.243  0.7945E-11  0.3240E+03
    -16.132  0.0000E+00  0.3240E+03
    -16.022  0.0000E+00  0.3240E+03
    -15.911  0.0000E+00  0.3240E+03
    -15.801  0.0000E+00  0.3240E+03
    -15.690  0.0000E+00  0.3240E+03
    -15.580  0.0000E+00  0.3240E+03
    -15.469  0.0000E+00  0.3240E+03
    -15.359  0.0000E+00  0.3240E+03
    -15.248  0.0000E+00  0.3240E+03
    -15.138  0.0000E+00  0.3240E+03
    -15.027  0.0000E+00  0.3240E+03
    -14.917  0.0000E+00  0.3240E+03
    -14.806  0.0000E+00  0.3240E+03
    -14.696  0.0000E+00  0.3240E+03
    -14.585  0.0000E+00  0.3240E+03
    -14.475  0.0000E+00  0.3240E+03
    -14.364  0.0000E+00  0.3240E+03
    -14.254  0.0000E+00  0.3240E+03
    -14.143  0.0000E+00  0.3240E+03
    -14.033  0.0000E+00  0.3240E+03
    -13.922  0.0000E+00  0.3240E+03
    -13.812  0.0000E+00  0.3240E+03
    -13.701  0.0000E+00  0.3240E+03
    -13.591  0.0000E+00  0.3240E+03
    -13.480  0.0000E+00  0.3240E+03
    -13.370  0.0000E+00  0.3240E+03
    -13.259  0.0000E+00  0.3240E+03
    -13.149  0.0000E+00  0.3240E+03
    -13.038  0.0000E+00  0.3240E+03
    -12.928  0.0000E+00  0.3240E+03
    -12.817  0.0000E+00  0.3240E+03
    -12.707  0.0000E+00  0.3240E+03
    -12.596  0.0000E+00  0.3240E+03
    -12.486  0.0000E+00  0.3240E+03
    -12.375  0.0000E+00  0.3240E+03
    -12.265  0.0000E+00  0.3240E+03
    -12.154  0.0000E+00  0.3240E+03
    -12.044  0.0000E+00  0.3240E+03
    -11.933  0.0000E+00  0.3240E+03
    -11.823  0.0000E+00  0.3240E+03
    -11.712  0.0000E+00  0.3240E+03
    -11.602  0.0000E+00  0.3240E+03
    -11.491  0.0000E+00  0.3240E+03
    -11.381  0.0000E+00  0.3240E+03
    -11.270  0.0000E+00  0.3240E+03
    -11.160  0.0000E+00  0.3240E+03
    -11.049  0.0000E+00  0.3240E+03
    -10.939  0.0000E+00  0.3240E+03
    -10.828  0.0000E+00  0.3240E+03
    -10.718  0.0000E+00  0.3240E+03
    -10.607  0.0000E+00  0.3240E+03
    -10.497  0.0000E+00  0.3240E+03
    -10.386  0.0000E+00  0.3240E+03
    -10.276  0.0000E+00  0.3240E+03
    -10.165  0.0000E+00  0.3240E+03
    -10.055  0.0000E+00  0.3240E+03
     -9.944  0.0000E+00  0.3240E+03
     -9.834  0.0000E+00  0.3240E+03
     -9.723  0.0000E+00  0.3240E+03
     -9.613  0.0000E+00  0.3240E+03
     -9.502  0.0000E+00  0.3240E+03
     -9.392  0.0000E+00  0.3240E+03
     -9.281  0.1982E-12  0.3240E+03
     -9.171  0.1156E-04  0.3240E+03
     -9.060  0.1277E+00  0.3240E+03
     -8.950  0.3271E+01  0.3244E+03
     -8.839  0.7825E+01  0.3252E+03
     -8.729  0.1121E+02  0.3265E+03
     -8.618  0.1441E+02  0.3281E+03
     -8.508  0.1783E+02  0.3300E+03
     -8.397  0.2176E+02  0.3324E+03
     -8.287  0.2666E+02  0.3354E+03
     -8.176  0.3368E+02  0.3391E+03
     -8.066  0.5571E+02  0.3453E+03
     -7.956  0.1544E+03  0.3623E+03
     -7.845  0.8402E+02  0.3716E+03
     -7.735  0.3457E+02  0.3754E+03
     -7.624  0.1711E+02  0.3773E+03
     -7.514  0.1184E+02  0.3786E+03
     -7.403  0.1078E+02  0.3798E+03
     -7.293  0.1227E+02  0.3812E+03
     -7.182  0.1626E+02  0.3830E+03
     -7.072  0.2344E+02  0.3856E+03
     -6.961  0.3672E+02  0.3896E+03
     -6.851  0.7641E+02  0.3981E+03
     -6.740  0.1116E+03  0.4104E+03
     -6.630  0.7150E+02  0.4183E+03
     -6.519  0.4180E+02  0.4229E+03
     -6.409  0.2814E+02  0.4260E+03
     -6.298  0.1935E+02  0.4282E+03
     -6.188  0.1461E+02  0.4298E+03
     -6.077  0.3428E+02  0.4336E+03
     -5.967  0.5715E+02  0.4399E+03
     -5.856  0.6844E+02  0.4475E+03
     -5.746  0.5913E+02  0.4540E+03
     -5.635  0.5329E+02  0.4599E+03
     -5.525  0.4952E+02  0.4653E+03
     -5.414  0.4617E+02  0.4704E+03
     -5.304  0.4217E+02  0.4751E+03
     -5.193  0.3640E+02  0.4791E+03
     -5.083  0.5885E+02  0.4856E+03
     -4.972  0.1919E+03  0.5068E+03
     -4.862  0.2258E+03  0.5318E+03
     -4.751  0.1605E+03  0.5495E+03
     -4.641  0.1367E+03  0.5646E+03
     -4.530  0.1370E+03  0.5798E+03
     -4.420  0.1214E+03  0.5932E+03
     -4.309  0.9717E+02  0.6039E+03
     -4.199  0.1546E+03  0.6210E+03
     -4.088  0.1118E+03  0.6334E+03
     -3.978  0.8469E+02  0.6427E+03
     -3.867  0.4441E+02  0.6476E+03
     -3.757  0.3432E+01  0.6480E+03
     -3.646  0.2274E-02  0.6480E+03
     -3.536  0.5373E-09  0.6480E+03
     -3.425  0.0000E+00  0.6480E+03
     -3.315  0.0000E+00  0.6480E+03
     -3.204  0.0000E+00  0.6480E+03
     -3.094  0.0000E+00  0.6480E+03
     -2.983  0.0000E+00  0.6480E+03
     -2.873  0.0000E+00  0.6480E+03
     -2.762  0.2101E-07  0.6480E+03
     -2.652  0.4309E-01  0.6480E+03
     -2.541  0.3669E+02  0.6521E+03
     -2.431  0.2840E+03  0.6834E+03
     -2.320  0.2461E+03  0.7106E+03
     -2.210  0.2182E+03  0.7347E+03
     -2.099  0.1646E+03  0.7529E+03
     -1.989  0.1304E+03  0.7673E+03
     -1.878  0.1962E+03  0.7890E+03
     -1.768  0.1900E+03  0.8100E+03
     -1.657  0.1570E+03  0.8274E+03
     -1.547  0.2185E+03  0.8515E+03
     -1.436  0.2997E+03  0.8846E+03
     -1.326  0.2747E+03  0.9150E+03
     -1.215  0.1172E+03  0.9279E+03
     -1.105  0.1220E+03  0.9414E+03
     -0.994  0.2404E+03  0.9680E+03
     -0.884  0.3180E+03  0.1003E+04
     -0.773  0.1638E+03  0.1021E+04
     -0.663  0.1416E+03  0.1037E+04
     -0.552  0.1851E+03  0.1057E+04
     -0.442  0.1718E+03  0.1076E+04
     -0.331  0.1177E+03  0.1089E+04
     -0.221  0.1569E+03  0.1107E+04
     -0.110  0.2042E+03  0.1129E+04
      0.000  0.1806E+03  0.1149E+04
      0.111  0.1815E+03  0.1169E+04
      0.221  0.1634E+03  0.1187E+04
      0.332  0.1789E+03  0.1207E+04
      0.442  0.2106E+03  0.1230E+04
      0.553  0.1687E+03  0.1249E+04
      0.663  0.1479E+03  0.1265E+04
      0.774  0.2292E+03  0.1291E+04
      0.884  0.4883E+02  0.1296E+04
      0.995  0.1631E+00  0.1296E+04
      1.105  0.4016E-06  0.1296E+04
      1.216  0.9059E-17  0.1296E+04
      1.326  0.0000E+00  0.1296E+04
      1.437  0.0000E+00  0.1296E+04
      1.547  0.0000E+00  0.1296E+04
      1.658  0.0000E+00  0.1296E+04
      1.768  0.0000E+00  0.1296E+04
      1.879  0.0000E+00  0.1296E+04
      1.989  0.0000E+00  0.1296E+04
      2.100  0.0000E+00  0.1296E+04
      2.210  0.0000E+00  0.1296E+04
      2.321  0.0000E+00  0.1296E+04
      2.431  0.0000E+00  0.1296E+04
      2.542  0.0000E+00  0.1296E+04
      2.652  0.0000E+00  0.1296E+04
      2.763  0.0000E+00  0.1296E+04
      2.873  0.0000E+00  0.1296E+04
      2.984  0.0000E+00  0.1296E+04
      3.094  0.0000E+00  0.1296E+04
      3.205  0.0000E+00  0.1296E+04
      3.315  0.0000E+00  0.1296E+04
      3.426  0.0000E+00  0.1296E+04
      3.536  0.0000E+00  0.1296E+04
      3.647  0.0000E+00  0.1296E+04
      3.757  0.0000E+00  0.1296E+04
      3.868  0.0000E+00  0.1296E+04
      3.978  0.0000E+00  0.1296E+04
      4.089  0.0000E+00  0.1296E+04
      4.199  0.0000E+00  0.1296E+04
      4.310  0.0000E+00  0.1296E+04
      4.420  0.0000E+00  0.1296E+04
      4.531  0.0000E+00  0.1296E+04
      4.641  0.0000E+00  0.1296E+04
      4.752  0.0000E+00  0.1296E+04
      4.862  0.0000E+00  0.1296E+04
      4.973  0.0000E+00  0.1296E+04
      5.083  0.0000E+00  0.1296E+04
      5.194  0.0000E+00  0.1296E+04
      5.304  0.0000E+00  0.1296E+04
      5.415  0.0000E+00  0.1296E+04
      5.525  0.0000E+00  0.1296E+04
      5.636  0.0000E+00  0.1296E+04
      5.746  0.0000E+00  0.1296E+04
      5.857  0.0000E+00  0.1296E+04
      5.967  0.0000E+00  0.1296E+04
      6.078  0.0000E+00  0.1296E+04
      6.188  0.0000E+00  0.1296E+04
      6.299  0.0000E+00  0.1296E+04
      6.409  0.0000E+00  0.1296E+04
      6.520  0.6020E-11  0.1296E+04
      6.630  0.5817E-04  0.1296E+04
      6.741  0.1491E+00  0.1296E+04
      6.851  0.1866E+01  0.1296E+04
      6.962  0.3642E+01  0.1297E+04
      7.072  0.4929E+01  0.1297E+04
      7.183  0.6081E+01  0.1298E+04
      7.293  0.7221E+01  0.1299E+04
      7.404  0.8306E+01  0.1300E+04
      7.514  0.9293E+01  0.1301E+04
      7.625  0.1044E+02  0.1302E+04
      7.735  0.1177E+02  0.1303E+04
      7.846  0.1274E+02  0.1304E+04
      7.956  0.1391E+02  0.1306E+04
      8.067  0.1560E+02  0.1308E+04
      8.177  0.1656E+02  0.1310E+04
      8.288  0.1815E+02  0.1312E+04
      8.398  0.2018E+02  0.1314E+04
      8.509  0.2138E+02  0.1316E+04
      8.619  0.2412E+02  0.1319E+04
      8.730  0.2707E+02  0.1322E+04
      8.840  0.3079E+02  0.1325E+04
      8.951  0.3378E+02  0.1329E+04
      9.061  0.3344E+02  0.1333E+04
      9.172  0.3241E+02  0.1336E+04
      9.282  0.3180E+02  0.1340E+04
      9.393  0.3116E+02  0.1343E+04
      9.503  0.3174E+02  0.1347E+04
      9.614  0.3537E+02  0.1351E+04
      9.724  0.4568E+02  0.1356E+04
      9.835  0.7681E+02  0.1364E+04
      9.945  0.1252E+03  0.1378E+04
     10.056  0.1644E+03  0.1396E+04
     10.166  0.1373E+03  0.1411E+04
     10.277  0.1215E+03  0.1425E+04
     10.387  0.1317E+03  0.1439E+04
     10.498  0.1754E+03  0.1459E+04
     10.608  0.2528E+03  0.1487E+04
     10.719  0.2037E+03  0.1509E+04
     10.829  0.1565E+03  0.1526E+04
     10.940  0.1089E+03  0.1538E+04
     11.050  0.1071E+03  0.1550E+04
     11.161  0.9918E+02  0.1561E+04
     11.271  0.5456E+02  0.1567E+04
     11.382  0.6881E+01  0.1568E+04
     11.492  0.1317E-01  0.1568E+04
     11.603  0.1985E-07  0.1568E+04
     11.713  0.0000E+00  0.1568E+04
     11.824  0.0000E+00  0.1568E+04
     11.934  0.0000E+00  0.1568E+04
     12.045  0.0000E+00  0.1568E+04
     12.155  0.0000E+00  0.1568E+04
     12.266  0.0000E+00  0.1568E+04
     12.376  0.0000E+00  0.1568E+04
     12.487  0.0000E+00  0.1568E+04
     12.597  0.0000E+00  0.1568E+04
     12.708  0.0000E+00  0.1568E+04
     12.818  0.0000E+00  0.1568E+04
