  243  243    1    1
  0.1311381E+02  0.1499190E-08  0.1499190E-08  0.1637160E-08  0.5000000E-15
  1.000000000000000E-004
  CAR 
 (Si O2)81  (P1) ~ Ciellie_MCM41 (MD     
   1296     96    784
 
  0.0000000E+00  0.0000000E+00  0.0000000E+00  0.7513148E-03
    1      -18.824441
    2      -18.615616
    3      -18.615614
    4      -18.536830
    5      -18.536822
    6      -18.536772
    7      -18.536654
    8      -18.536603
    9      -18.536595
   10      -18.407095
   11      -18.407095
   12      -18.407051
   13      -18.407049
   14      -18.407016
   15      -18.407014
   16      -18.406925
   17      -18.406923
   18      -18.406890
   19      -18.406888
   20      -18.406842
   21      -18.406841
   22      -18.279491
   23      -18.279489
   24      -18.279488
   25      -18.279486
   26      -18.116351
   27      -18.116349
   28      -18.116317
   29      -18.116314
   30      -18.045034
   31      -18.045034
   32      -17.949327
   33      -17.949326
   34      -17.949275
   35      -17.949275
   36      -17.949204
   37      -17.949202
   38      -17.949193
   39      -17.949191
   40      -17.949123
   41      -17.949122
   42      -17.949069
   43      -17.949068
   44      -17.799750
   45      -17.799750
   46      -17.799747
   47      -17.799747
   48      -17.672609
   49      -17.672605
   50      -17.672592
   51      -17.672334
   52      -17.672331
   53      -17.672320
   54      -17.457541
   55      -17.457540
   56      -17.457538
   57      -17.457537
   58      -17.313549
   59      -17.313545
   60      -17.288649
   61      -17.288603
   62      -17.275991
   63      -17.275879
   64      -17.275855
   65      -17.275764
   66      -17.275744
   67      -17.275635
   68      -17.136334
   69      -17.136334
   70      -17.136333
   71      -17.136332
   72      -17.136276
   73      -17.136274
   74      -17.136271
   75      -17.136269
   76      -17.136214
   77      -17.136214
   78      -17.136213
   79      -17.136213
   80      -16.692160
   81      -16.692157
   82      -16.666313
   83      -16.666311
   84      -16.666310
   85      -16.666308
   86      -16.658516
   87      -16.654973
   88      -16.654972
   89      -16.654958
   90      -16.654957
   91      -16.653511
   92      -16.653510
   93      -16.653464
   94      -16.653462
   95      -16.653383
   96      -16.653381
   97      -16.653322
   98      -16.653319
   99      -16.653239
  100      -16.653238
  101      -16.653177
  102      -16.653175
  103      -16.651899
  104      -16.651895
  105      -16.651893
  106      -16.651832
  107      -16.651829
  108      -16.651825
  109      -16.647263
  110      -16.647259
  111      -16.646838
  112      -16.646836
  113      -16.645735
  114      -16.645732
  115      -16.645710
  116      -16.645707
  117      -16.645696
  118      -16.645693
  119      -16.645660
  120      -16.645658
  121      -16.645638
  122      -16.645633
  123      -16.645586
  124      -16.645581
  125      -16.644833
  126      -16.644828
  127      -16.644791
  128      -16.644697
  129      -16.644653
  130      -16.644642
  131      -16.639537
  132      -16.639535
  133      -16.639494
  134      -16.639491
  135      -16.638871
  136      -16.638871
  137      -16.638868
  138      -16.638868
  139      -16.635631
  140      -16.635518
  141      -16.635490
  142      -16.635401
  143      -16.635377
  144      -16.635255
  145      -16.627613
  146      -16.627612
  147      -16.626812
  148      -16.626812
  149      -16.626719
  150      -16.626718
  151      -16.626703
  152      -16.626701
  153      -16.626600
  154      -16.626598
  155      -16.626586
  156      -16.626585
  157      -16.626475
  158      -16.626475
  159      -16.621865
  160      -16.621862
  161      -16.620449
  162      -16.620396
  163       -8.885782
  164       -8.885779
  165       -8.192273
  166       -8.192272
  167       -8.192243
  168       -8.192242
  169       -8.192207
  170       -8.192204
  171       -8.192180
  172       -8.192177
  173       -8.192141
  174       -8.192140
  175       -8.192111
  176       -8.192111
  177       -8.077990
  178       -8.077990
  179       -7.956825
  180       -7.956823
  181       -7.956800
  182       -7.956750
  183       -7.956730
  184       -7.956720
  185       -7.826446
  186       -7.826417
  187       -7.673561
  188       -7.673560
  189       -7.673559
  190       -7.673558
  191       -7.181720
  192       -7.181718
  193       -7.181707
  194       -7.181705
  195       -7.181700
  196       -7.181695
  197       -6.765242
  198       -6.765242
  199       -6.765239
  200       -6.765239
  201       -6.656571
  202       -6.656571
  203       -6.656565
  204       -6.656563
  205       -6.656525
  206       -6.656524
  207       -6.656482
  208       -6.656482
  209       -6.656441
  210       -6.656440
  211       -6.656440
  212       -6.656439
  213       -6.330852
  214       -6.330851
  215       -6.159307
  216       -6.159304
  217       -6.159274
  218       -6.159270
  219       -6.156280
  220       -6.156277
  221       -6.156277
  222       -6.156274
  223       -5.718679
  224       -5.718678
  225       -5.718671
  226       -5.718670
  227       -5.718628
  228       -5.718627
  229       -5.718627
  230       -5.718626
  231       -5.718594
  232       -5.718593
  233       -5.718588
  234       -5.718586
  235       -5.149680
  236       -5.149678
  237       -5.145491
  238       -5.145489
  239       -5.102143
  240       -5.102143
  241       -5.055118
  242       -5.053416
  243       -5.053415
  244       -5.053412
  245       -5.053395
  246       -5.053394
  247       -5.053392
  248       -5.035675
  249       -5.035647
  250       -5.035605
  251       -5.035578
  252       -5.035567
  253       -5.035498
  254       -4.937722
  255       -4.937721
  256       -4.937692
  257       -4.937691
  258       -4.937687
  259       -4.937686
  260       -4.937643
  261       -4.937642
  262       -4.937641
  263       -4.937640
  264       -4.937603
  265       -4.937601
  266       -4.869826
  267       -4.869801
  268       -4.869791
  269       -4.869756
  270       -4.869753
  271       -4.869739
  272       -4.842333
  273       -4.842331
  274       -4.842308
  275       -4.842306
  276       -4.822925
  277       -4.822925
  278       -4.822925
  279       -4.822925
  280       -4.725682
  281       -4.633076
  282       -4.633070
  283       -4.509570
  284       -4.509570
  285       -4.509560
  286       -4.509560
  287       -4.509525
  288       -4.509524
  289       -4.509522
  290       -4.509522
  291       -4.509484
  292       -4.509483
  293       -4.509472
  294       -4.509471
  295       -4.443738
  296       -4.443736
  297       -4.443734
  298       -4.443731
  299       -4.269725
  300       -4.269724
  301       -4.269724
  302       -4.269723
  303       -4.253436
  304       -4.253435
  305       -4.253401
  306       -4.253401
  307       -4.253395
  308       -4.253393
  309       -4.253390
  310       -4.253389
  311       -4.253385
  312       -4.253384
  313       -4.253345
  314       -4.253344
  315       -4.106086
  316       -4.106066
  317       -4.106056
  318       -4.106043
  319       -4.106034
  320       -4.106024
  321       -4.003771
  322       -4.003768
  323       -3.855230
  324       -3.855228
  325       -2.538068
  326       -2.538066
  327       -2.538065
  328       -2.538063
  329       -2.481727
  330       -2.481727
  331       -2.481710
  332       -2.481710
  333       -2.481650
  334       -2.481650
  335       -2.481645
  336       -2.481644
  337       -2.481585
  338       -2.481584
  339       -2.481568
  340       -2.481567
  341       -2.456135
  342       -2.456119
  343       -2.456118
  344       -2.456042
  345       -2.456038
  346       -2.456025
  347       -2.322548
  348       -2.322547
  349       -2.322427
  350       -2.322426
  351       -2.283484
  352       -2.283484
  353       -2.283470
  354       -2.283469
  355       -2.283425
  356       -2.283425
  357       -2.283367
  358       -2.283367
  359       -2.283328
  360       -2.283327
  361       -2.283313
  362       -2.283313
  363       -2.223856
  364       -2.216317
  365       -2.216317
  366       -2.216316
  367       -2.216315
  368       -2.185525
  369       -2.185504
  370       -2.185491
  371       -2.185414
  372       -2.185387
  373       -2.185366
  374       -2.180932
  375       -2.180931
  376       -2.179857
  377       -2.179845
  378       -2.147996
  379       -2.147996
  380       -2.147994
  381       -2.147994
  382       -2.020180
  383       -2.020177
  384       -2.014381
  385       -2.014380
  386       -1.892963
  387       -1.892960
  388       -1.889358
  389       -1.889292
  390       -1.889266
  391       -1.889266
  392       -1.889247
  393       -1.889178
  394       -1.832816
  395       -1.832814
  396       -1.832785
  397       -1.832783
  398       -1.832762
  399       -1.832760
  400       -1.832727
  401       -1.832726
  402       -1.832683
  403       -1.832681
  404       -1.832623
  405       -1.832621
  406       -1.829799
  407       -1.680081
  408       -1.680052
  409       -1.679908
  410       -1.679882
  411       -1.679838
  412       -1.679782
  413       -1.648134
  414       -1.648133
  415       -1.648109
  416       -1.648109
  417       -1.648087
  418       -1.648087
  419       -1.648082
  420       -1.648081
  421       -1.648053
  422       -1.648053
  423       -1.648038
  424       -1.648038
  425       -1.555955
  426       -1.555954
  427       -1.497235
  428       -1.497234
  429       -1.497176
  430       -1.497175
  431       -1.497173
  432       -1.497172
  433       -1.497164
  434       -1.497163
  435       -1.497163
  436       -1.497163
  437       -1.497110
  438       -1.497110
  439       -1.484672
  440       -1.484672
  441       -1.406579
  442       -1.406577
  443       -1.373018
  444       -1.373015
  445       -1.373009
  446       -1.373007
  447       -1.371086
  448       -1.371050
  449       -1.370973
  450       -1.370967
  451       -1.370941
  452       -1.370888
  453       -1.334394
  454       -1.334394
  455       -1.334394
  456       -1.334394
  457       -1.310551
  458       -1.310550
  459       -1.310515
  460       -1.310515
  461       -1.275166
  462       -1.275166
  463       -1.275165
  464       -1.275165
  465       -1.223638
  466       -1.223625
  467       -1.223593
  468       -1.223576
  469       -1.223523
  470       -1.223512
  471       -1.148848
  472       -1.148848
  473       -1.120757
  474       -1.120757
  475       -1.044599
  476       -1.044594
  477       -1.041195
  478       -1.041193
  479       -0.982333
  480       -0.982326
  481       -0.982323
  482       -0.982322
  483       -0.982104
  484       -0.982099
  485       -0.981508
  486       -0.973792
  487       -0.973403
  488       -0.929858
  489       -0.929857
  490       -0.929832
  491       -0.929831
  492       -0.929778
  493       -0.929777
  494       -0.929744
  495       -0.929743
  496       -0.929721
  497       -0.929720
  498       -0.929647
  499       -0.929646
  500       -0.866978
  501       -0.866977
  502       -0.866952
  503       -0.866951
  504       -0.866918
  505       -0.866918
  506       -0.866884
  507       -0.866883
  508       -0.866865
  509       -0.866865
  510       -0.866842
  511       -0.866841
  512       -0.695508
  513       -0.695503
  514       -0.695306
  515       -0.695300
  516       -0.656495
  517       -0.656494
  518       -0.656435
  519       -0.656434
  520       -0.656421
  521       -0.656421
  522       -0.656345
  523       -0.656344
  524       -0.656344
  525       -0.656344
  526       -0.656288
  527       -0.656287
  528       -0.631117
  529       -0.631116
  530       -0.631113
  531       -0.631112
  532       -0.445153
  533       -0.445115
  534       -0.445045
  535       -0.444998
  536       -0.444990
  537       -0.444874
  538       -0.377974
  539       -0.377973
  540       -0.377971
  541       -0.377970
  542       -0.326662
  543       -0.326659
  544       -0.282542
  545       -0.282525
  546       -0.282334
  547       -0.282316
  548       -0.282307
  549       -0.282284
  550       -0.275797
  551       -0.275797
  552       -0.275788
  553       -0.275787
  554       -0.225904
  555       -0.225674
  556       -0.138902
  557       -0.138902
  558       -0.138888
  559       -0.138887
  560       -0.138881
  561       -0.138881
  562       -0.138859
  563       -0.138859
  564       -0.138789
  565       -0.138788
  566       -0.138768
  567       -0.138766
  568       -0.069770
  569       -0.069738
  570       -0.069718
  571       -0.069652
  572       -0.069647
  573       -0.069609
  574        0.078615
  575        0.078616
  576        0.078619
  577        0.078620
  578        0.127898
  579        0.127901
  580        0.127911
  581        0.127913
  582        0.128038
  583        0.128041
  584        0.128049
  585        0.128051
  586        0.128084
  587        0.128087
  588        0.128106
  589        0.128109
  590        0.143667
  591        0.143667
  592        0.143673
  593        0.143673
  594        0.249873
  595        0.249874
  596        0.249882
  597        0.249882
  598        0.249903
  599        0.249904
  600        0.249908
  601        0.249909
  602        0.249933
  603        0.249933
  604        0.249941
  605        0.249942
  606        0.311207
  607        0.311213
  608        0.311413
  609        0.311417
  610        0.318719
  611        0.318735
  612        0.415514
  613        0.415516
  614        0.415521
  615        0.415523
  616        0.436921
  617        0.436924
  618        0.460107
  619        0.460107
  620        0.460130
  621        0.460130
  622        0.460133
  623        0.460136
  624        0.612896
  625        0.662084
  626        0.662085
  627        0.662116
  628        0.662116
  629        0.662125
  630        0.662126
  631        0.662155
  632        0.662156
  633        0.662190
  634        0.662191
  635        0.662245
  636        0.662247
  637        0.728084
  638        0.728089
  639        0.728145
  640        0.728160
  641        0.728175
  642        0.728251
  643        0.730293
  644        0.730294
  645        0.752549
  646        0.752557
  647        0.796655
  648        0.796655
  649        6.740176
  650        7.687818
  651        7.687820
  652        8.062477
  653        8.062548
  654        8.062571
  655        8.062675
  656        8.062828
  657        8.062845
  658        8.747817
  659        8.747819
  660        8.747889
  661        8.747891
  662        8.747894
  663        8.747896
  664        8.748006
  665        8.748008
  666        8.748145
  667        8.748147
  668        8.748150
  669        8.748152
  670        9.465054
  671        9.465054
  672        9.551317
  673        9.551320
  674        9.552032
  675        9.552034
  676        9.552754
  677        9.552786
  678        9.873515
  679        9.873515
  680        9.873536
  681        9.873537
  682        9.906608
  683        9.906651
  684        9.906771
  685        9.906828
  686        9.906867
  687        9.906941
  688        9.940638
  689        9.940639
  690        9.940644
  691        9.940645
  692       10.006408
  693       10.006873
  694       10.131454
  695       10.131454
  696       10.131469
  697       10.131469
  698       10.131579
  699       10.131580
  700       10.131580
  701       10.131580
  702       10.131684
  703       10.131685
  704       10.131713
  705       10.131714
  706       10.202428
  707       10.202434
  708       10.302012
  709       10.302574
  710       10.343253
  711       10.343255
  712       10.343275
  713       10.343276
  714       10.343373
  715       10.343374
  716       10.343415
  717       10.343416
  718       10.343534
  719       10.343535
  720       10.343540
  721       10.343541
  722       10.389609
  723       10.389610
  724       10.489660
  725       10.489688
  726       10.489706
  727       10.489745
  728       10.489804
  729       10.489874
  730       10.507941
  731       10.507957
  732       10.542340
  733       10.542346
  734       10.542400
  735       10.542422
  736       10.542664
  737       10.542675
  738       10.542718
  739       10.542722
  740       10.542839
  741       10.542853
  742       10.542938
  743       10.542951
  744       10.570481
  745       10.570495
  746       10.570500
  747       10.570519
  748       10.570535
  749       10.570638
  750       10.623442
  751       10.623446
  752       10.623458
  753       10.623481
  754       10.772602
  755       10.772623
  756       10.772663
  757       10.772698
  758       10.772733
  759       10.772739
  760       10.772762
  761       10.772796
  762       10.772835
  763       10.772871
  764       10.773157
  765       10.774336
  766       10.825787
  767       10.825847
  768       10.826334
  769       10.827816
  770       10.890515
  771       10.890676
  772       10.890905
  773       10.891122
  774       10.891734
  775       10.895820
  776       11.000401
  777       11.003301
  778       11.016571
  779       11.024440
  780       11.064656
  781       11.066421
  782       11.069784
  783       11.077976
  784       11.121364
 
  0.9090909E-01 -0.7134861E-18 -0.2074428E-24  0.4507889E-02
    1      -18.821310
    2      -18.613474
    3      -18.613472
    4      -18.581457
    5      -18.557341
    6      -18.557332
    7      -18.512131
    8      -18.512118
    9      -18.491461
   10      -18.434390
   11      -18.434387
   12      -18.419474
   13      -18.419473
   14      -18.419458
   15      -18.419455
   16      -18.393141
   17      -18.393141
   18      -18.393119
   19      -18.393116
   20      -18.381829
   21      -18.381825
   22      -18.280825
   23      -18.280822
   24      -18.280818
   25      -18.280815
   26      -18.163674
   27      -18.163645
   28      -18.069980
   29      -18.069949
   30      -18.044344
   31      -18.044344
   32      -17.966045
   33      -17.966044
   34      -17.957178
   35      -17.957177
   36      -17.957159
   37      -17.957157
   38      -17.939807
   39      -17.939806
   40      -17.939782
   41      -17.939779
   42      -17.931310
   43      -17.931308
   44      -17.803472
   45      -17.803471
   46      -17.803463
   47      -17.803462
   48      -17.728420
   49      -17.702411
   50      -17.702397
   51      -17.645995
   52      -17.645988
   53      -17.616406
   54      -17.451305
   55      -17.451304
   56      -17.451299
   57      -17.451299
   58      -17.313184
   59      -17.313178
   60      -17.292415
   61      -17.288426
   62      -17.277141
   63      -17.277079
   64      -17.277042
   65      -17.276034
   66      -17.276000
   67      -17.275083
   68      -17.190681
   69      -17.190679
   70      -17.166213
   71      -17.166211
   72      -17.166175
   73      -17.166172
   74      -17.110632
   75      -17.110630
   76      -17.110598
   77      -17.110596
   78      -17.079848
   79      -17.079846
   80      -16.699376
   81      -16.699374
   82      -16.665732
   83      -16.665729
   84      -16.665726
   85      -16.665723
   86      -16.658469
   87      -16.656077
   88      -16.656074
   89      -16.655113
   90      -16.655112
   91      -16.655064
   92      -16.655061
   93      -16.654889
   94      -16.654889
   95      -16.654850
   96      -16.654849
   97      -16.652846
   98      -16.652385
   99      -16.652383
  100      -16.652352
  101      -16.652348
  102      -16.652313
  103      -16.652303
  104      -16.651839
  105      -16.651644
  106      -16.651632
  107      -16.650633
  108      -16.650631
  109      -16.648049
  110      -16.648043
  111      -16.647339
  112      -16.647335
  113      -16.647110
  114      -16.646844
  115      -16.646843
  116      -16.646769
  117      -16.646765
  118      -16.645816
  119      -16.645752
  120      -16.645127
  121      -16.645125
  122      -16.645047
  123      -16.645046
  124      -16.644974
  125      -16.644970
  126      -16.643943
  127      -16.643939
  128      -16.643729
  129      -16.643668
  130      -16.642697
  131      -16.640320
  132      -16.640287
  133      -16.639402
  134      -16.639364
  135      -16.638424
  136      -16.638423
  137      -16.638418
  138      -16.638418
  139      -16.637071
  140      -16.636080
  141      -16.636043
  142      -16.634317
  143      -16.634279
  144      -16.633712
  145      -16.628386
  146      -16.628383
  147      -16.627742
  148      -16.627741
  149      -16.627697
  150      -16.627697
  151      -16.627563
  152      -16.627563
  153      -16.626173
  154      -16.626171
  155      -16.626156
  156      -16.626154
  157      -16.625204
  158      -16.625201
  159      -16.622692
  160      -16.622689
  161      -16.620738
  162      -16.620650
  163       -8.878699
  164       -8.878696
  165       -8.288421
  166       -8.288418
  167       -8.236362
  168       -8.236360
  169       -8.236353
  170       -8.236350
  171       -8.141511
  172       -8.141509
  173       -8.141498
  174       -8.141495
  175       -8.099223
  176       -8.099220
  177       -8.076257
  178       -8.076256
  179       -7.969459
  180       -7.965194
  181       -7.965185
  182       -7.951505
  183       -7.951497
  184       -7.942453
  185       -7.827976
  186       -7.819664
  187       -7.681097
  188       -7.681096
  189       -7.681092
  190       -7.681089
  191       -7.268395
  192       -7.218672
  193       -7.218657
  194       -7.133586
  195       -7.133568
  196       -7.099998
  197       -6.766308
  198       -6.766308
  199       -6.766302
  200       -6.766301
  201       -6.705464
  202       -6.705462
  203       -6.680937
  204       -6.680935
  205       -6.680933
  206       -6.680931
  207       -6.632703
  208       -6.632702
  209       -6.632701
  210       -6.632700
  211       -6.608782
  212       -6.608780
  213       -6.334567
  214       -6.334566
  215       -6.280211
  216       -6.280184
  217       -6.146548
  218       -6.146545
  219       -6.146544
  220       -6.146541
  221       -6.038970
  222       -6.038938
  223       -5.755725
  224       -5.755724
  225       -5.743039
  226       -5.743038
  227       -5.742997
  228       -5.742994
  229       -5.702980
  230       -5.702979
  231       -5.702940
  232       -5.702938
  233       -5.676371
  234       -5.676370
  235       -5.186694
  236       -5.186692
  237       -5.146802
  238       -5.146801
  239       -5.115586
  240       -5.115537
  241       -5.110006
  242       -5.074238
  243       -5.074226
  244       -5.061035
  245       -5.061035
  246       -5.053755
  247       -5.038612
  248       -5.033029
  249       -5.008116
  250       -5.008082
  251       -4.995014
  252       -4.988287
  253       -4.988223
  254       -4.957111
  255       -4.957109
  256       -4.945046
  257       -4.945046
  258       -4.945008
  259       -4.945006
  260       -4.927229
  261       -4.927229
  262       -4.927190
  263       -4.927188
  264       -4.921209
  265       -4.921207
  266       -4.870926
  267       -4.870187
  268       -4.870146
  269       -4.868892
  270       -4.868853
  271       -4.868161
  272       -4.846511
  273       -4.846491
  274       -4.840787
  275       -4.840767
  276       -4.823887
  277       -4.823887
  278       -4.823884
  279       -4.823884
  280       -4.737131
  281       -4.637391
  282       -4.618098
  283       -4.553228
  284       -4.553227
  285       -4.529538
  286       -4.529538
  287       -4.529530
  288       -4.529529
  289       -4.489392
  290       -4.489391
  291       -4.489383
  292       -4.489382
  293       -4.472503
  294       -4.472502
  295       -4.442756
  296       -4.442753
  297       -4.442751
  298       -4.442748
  299       -4.279113
  300       -4.279110
  301       -4.271020
  302       -4.271019
  303       -4.271019
  304       -4.271018
  305       -4.267671
  306       -4.267668
  307       -4.267658
  308       -4.267656
  309       -4.240366
  310       -4.240363
  311       -4.240354
  312       -4.240352
  313       -4.224513
  314       -4.224510
  315       -4.158981
  316       -4.129813
  317       -4.129784
  318       -4.079713
  319       -4.079680
  320       -4.059016
  321       -4.006699
  322       -4.006696
  323       -3.858975
  324       -3.858969
  325       -2.536745
  326       -2.536742
  327       -2.536742
  328       -2.536740
  329       -2.495276
  330       -2.495275
  331       -2.489530
  332       -2.489529
  333       -2.489527
  334       -2.489526
  335       -2.473370
  336       -2.473370
  337       -2.473364
  338       -2.473364
  339       -2.462654
  340       -2.462653
  341       -2.456549
  342       -2.455867
  343       -2.455858
  344       -2.452997
  345       -2.452992
  346       -2.450170
  347       -2.336047
  348       -2.335946
  349       -2.330524
  350       -2.330523
  351       -2.310913
  352       -2.310808
  353       -2.306924
  354       -2.306923
  355       -2.306892
  356       -2.306891
  357       -2.258634
  358       -2.258633
  359       -2.258613
  360       -2.258613
  361       -2.233534
  362       -2.233532
  363       -2.233469
  364       -2.233467
  365       -2.233113
  366       -2.233113
  367       -2.221777
  368       -2.204149
  369       -2.195192
  370       -2.195177
  371       -2.190793
  372       -2.187182
  373       -2.187181
  374       -2.181281
  375       -2.181241
  376       -2.177895
  377       -2.175002
  378       -2.128458
  379       -2.128456
  380       -2.128381
  381       -2.128379
  382       -2.018568
  383       -2.018553
  384       -2.015584
  385       -2.015583
  386       -1.935884
  387       -1.908139
  388       -1.908115
  389       -1.892638
  390       -1.892635
  391       -1.862664
  392       -1.862620
  393       -1.841462
  394       -1.840353
  395       -1.840350
  396       -1.840230
  397       -1.840228
  398       -1.838333
  399       -1.838331
  400       -1.833749
  401       -1.833746
  402       -1.833642
  403       -1.833640
  404       -1.827711
  405       -1.827709
  406       -1.817220
  407       -1.739668
  408       -1.712808
  409       -1.712612
  410       -1.674566
  411       -1.674564
  412       -1.662492
  413       -1.662490
  414       -1.662452
  415       -1.662451
  416       -1.649218
  417       -1.649034
  418       -1.634925
  419       -1.634924
  420       -1.634914
  421       -1.634913
  422       -1.622795
  423       -1.622794
  424       -1.610965
  425       -1.551767
  426       -1.551766
  427       -1.500214
  428       -1.500213
  429       -1.494286
  430       -1.494285
  431       -1.494267
  432       -1.494265
  433       -1.492423
  434       -1.492422
  435       -1.490735
  436       -1.490734
  437       -1.490705
  438       -1.490704
  439       -1.482747
  440       -1.482745
  441       -1.423569
  442       -1.423568
  443       -1.396705
  444       -1.386531
  445       -1.386468
  446       -1.383632
  447       -1.383629
  448       -1.383529
  449       -1.383526
  450       -1.363189
  451       -1.363103
  452       -1.349906
  453       -1.344794
  454       -1.344792
  455       -1.344717
  456       -1.344716
  457       -1.333576
  458       -1.333544
  459       -1.310074
  460       -1.310073
  461       -1.263675
  462       -1.253255
  463       -1.253253
  464       -1.253214
  465       -1.253211
  466       -1.242159
  467       -1.242089
  468       -1.203383
  469       -1.203327
  470       -1.184927
  471       -1.139651
  472       -1.139650
  473       -1.118072
  474       -1.118072
  475       -1.036013
  476       -1.036011
  477       -1.020558
  478       -1.020507
  479       -0.985101
  480       -0.983654
  481       -0.981438
  482       -0.981241
  483       -0.980928
  484       -0.978151
  485       -0.977725
  486       -0.977484
  487       -0.972728
  488       -0.955553
  489       -0.955551
  490       -0.943040
  491       -0.943038
  492       -0.942904
  493       -0.942903
  494       -0.928336
  495       -0.928335
  496       -0.928329
  497       -0.928327
  498       -0.923071
  499       -0.923071
  500       -0.881502
  501       -0.881501
  502       -0.878196
  503       -0.878194
  504       -0.878060
  505       -0.878058
  506       -0.853565
  507       -0.853565
  508       -0.853520
  509       -0.853519
  510       -0.834083
  511       -0.834082
  512       -0.736862
  513       -0.736664
  514       -0.707889
  515       -0.707887
  516       -0.676218
  517       -0.676217
  518       -0.676169
  519       -0.676168
  520       -0.653982
  521       -0.653829
  522       -0.634476
  523       -0.634475
  524       -0.634455
  525       -0.634454
  526       -0.627101
  527       -0.627099
  528       -0.627004
  529       -0.627003
  530       -0.608510
  531       -0.608508
  532       -0.462141
  533       -0.462032
  534       -0.452579
  535       -0.451852
  536       -0.451742
  537       -0.434139
  538       -0.385883
  539       -0.385883
  540       -0.385868
  541       -0.385867
  542       -0.322286
  543       -0.322284
  544       -0.293424
  545       -0.276698
  546       -0.276523
  547       -0.270034
  548       -0.265247
  549       -0.265032
  550       -0.264850
  551       -0.264849
  552       -0.264834
  553       -0.264833
  554       -0.230622
  555       -0.228234
  556       -0.168851
  557       -0.168850
  558       -0.153921
  559       -0.150728
  560       -0.150726
  561       -0.150613
  562       -0.150612
  563       -0.130707
  564       -0.130705
  565       -0.130618