Automatically generated mesh
      96
Reciprocal lattice
    0.00000000000000    0.00000000000000    0.00000000000000             1
    0.09090909090909   -0.00000000000000   -0.00000000000000             6
    0.18181818181818   -0.00000000000000   -0.00000000000000             6
    0.27272727272727   -0.00000000000000    0.00000000000000             6
    0.36363636363636   -0.00000000000000   -0.00000000000000             6
    0.45454545454546    0.00000000000000    0.00000000000000             6
    0.09090909090909    0.09090909090909    0.00000000000000             6
    0.18181818181818    0.09090909090909    0.00000000000000            12
    0.27272727272727    0.09090909090909    0.00000000000000            12
    0.36363636363636    0.09090909090909    0.00000000000000            12
    0.45454545454546    0.09090909090909    0.00000000000000             6
    0.18181818181818    0.18181818181818    0.00000000000000             6
    0.27272727272727    0.18181818181818   -0.00000000000000            12
    0.36363636363636    0.18181818181818    0.00000000000000            12
    0.27272727272727    0.27272727272727    0.00000000000000             6
    0.36363636363636    0.27272727272727    0.00000000000000             6
    0.00000000000000    0.00000000000000    0.09090909090909             2
    0.09090909090909   -0.00000000000000    0.09090909090909            12
    0.18181818181818   -0.00000000000000    0.09090909090909            12
    0.27272727272727   -0.00000000000000    0.09090909090909            12
    0.36363636363636   -0.00000000000000    0.09090909090909            12
    0.45454545454546    0.00000000000000    0.09090909090909            12
    0.09090909090909    0.09090909090909    0.09090909090909            12
    0.18181818181818    0.09090909090909    0.09090909090909            24
    0.27272727272727    0.09090909090909    0.09090909090909            24
    0.36363636363636    0.09090909090909    0.09090909090909            24
    0.45454545454546    0.09090909090909    0.09090909090909            12
    0.18181818181818    0.18181818181818    0.09090909090909            12
    0.27272727272727    0.18181818181818    0.09090909090909            24
    0.36363636363636    0.18181818181818    0.09090909090909            24
    0.27272727272727    0.27272727272727    0.09090909090909            12
    0.36363636363636    0.27272727272727    0.09090909090909            12
    0.00000000000000    0.00000000000000    0.18181818181818             2
    0.09090909090909   -0.00000000000000    0.18181818181818            12
    0.18181818181818   -0.00000000000000    0.18181818181818            12
    0.27272727272727   -0.00000000000000    0.18181818181818            12
    0.36363636363636   -0.00000000000000    0.18181818181818            12
    0.45454545454546    0.00000000000000    0.18181818181818            12
    0.09090909090909    0.09090909090909    0.18181818181818            12
    0.18181818181818    0.09090909090909    0.18181818181818            24
    0.27272727272727    0.09090909090909    0.18181818181818            24
    0.36363636363636    0.09090909090909    0.18181818181818            24
    0.45454545454546    0.09090909090909    0.18181818181818            12
    0.18181818181818    0.18181818181818    0.18181818181818            12
    0.27272727272727    0.18181818181818    0.18181818181818            24
    0.36363636363636    0.18181818181818    0.18181818181818            24
    0.27272727272727    0.27272727272727    0.18181818181818            12
    0.36363636363636    0.27272727272727    0.18181818181818            12
    0.00000000000000    0.00000000000000    0.27272727272727             2
    0.09090909090909   -0.00000000000000    0.27272727272727            12
    0.18181818181818   -0.00000000000000    0.27272727272727            12
    0.27272727272727   -0.00000000000000    0.27272727272727            12
    0.36363636363636   -0.00000000000000    0.27272727272727            12
    0.45454545454546    0.00000000000000    0.27272727272727            12
    0.09090909090909    0.09090909090909    0.27272727272727            12
    0.18181818181818    0.09090909090909    0.27272727272727            24
    0.27272727272727    0.09090909090909    0.27272727272727            24
    0.36363636363636    0.09090909090909    0.27272727272727            24
    0.45454545454546    0.09090909090909    0.27272727272727            12
    0.18181818181818    0.18181818181818    0.27272727272727            12
    0.27272727272727    0.18181818181818    0.27272727272727            24
    0.36363636363636    0.18181818181818    0.27272727272727            24
    0.27272727272727    0.27272727272727    0.27272727272727            12
    0.36363636363636    0.27272727272727    0.27272727272727            12
    0.00000000000000    0.00000000000000    0.36363636363636             2
    0.09090909090909   -0.00000000000000    0.36363636363636            12
    0.18181818181818   -0.00000000000000    0.36363636363636            12
    0.27272727272727   -0.00000000000000    0.36363636363636            12
    0.36363636363636   -0.00000000000000    0.36363636363636            12
    0.45454545454546    0.00000000000000    0.36363636363636            12
    0.09090909090909    0.09090909090909    0.36363636363636            12
    0.18181818181818    0.09090909090909    0.36363636363636            24
    0.27272727272727    0.09090909090909    0.36363636363636            24
    0.36363636363636    0.09090909090909    0.36363636363636            24
    0.45454545454546    0.09090909090909    0.36363636363636            12
    0.18181818181818    0.18181818181818    0.36363636363636            12
    0.27272727272727    0.18181818181818    0.36363636363636            24
    0.36363636363636    0.18181818181818    0.36363636363636            24
    0.27272727272727    0.27272727272727    0.36363636363636            12
    0.36363636363636    0.27272727272727    0.36363636363636            12
    0.00000000000000    0.00000000000000    0.45454545454545             2
    0.09090909090909   -0.00000000000000    0.45454545454545            12
    0.18181818181818   -0.00000000000000    0.45454545454545            12
    0.27272727272727   -0.00000000000000    0.45454545454545            12
    0.36363636363636   -0.00000000000000    0.45454545454545            12
    0.45454545454546    0.00000000000000    0.45454545454545            12
    0.09090909090909    0.09090909090909    0.45454545454545            12
    0.18181818181818    0.09090909090909    0.45454545454545            24
    0.27272727272727    0.09090909090909    0.45454545454545            24
    0.36363636363636    0.09090909090909    0.45454545454545            24
    0.45454545454546    0.09090909090909    0.45454545454545            12
    0.18181818181818    0.18181818181818    0.45454545454545            12
    0.27272727272727    0.18181818181818    0.45454545454545            24
    0.36363636363636    0.18181818181818    0.45454545454545            24
    0.27272727272727    0.27272727272727    0.45454545454545            12
    0.36363636363636    0.27272727272727    0.45454545454545            12
