<?xml version="1.0" encoding="ISO-8859-1"?>
<modeling>
 <generator>
  <i name="program" type="string">vasp </i>
  <i name="version" type="string">5.3.5  </i>
  <i name="subversion" type="string">31Mar14 (build Oct 18 2016 11:10:54) complex                          parallel </i>
  <i name="platform" type="string">LinuxIFC </i>
  <i name="date" type="string">2017 10 11 </i>
  <i name="time" type="string">15:39:01 </i>
 </generator>
 <incar>
  <i type="string" name="SYSTEM"> (Si O2)81  (P1) ~ Ciellie_MCM41 (MD</i>
  <i type="string" name="PREC">accurate</i>
  <i type="string" name="ALGO"> Normal (blocked Davidson)</i>
  <i type="int" name="ICHARG">     2</i>
  <i type="int" name="NELMIN">     2</i>
  <i type="int" name="IBRION">    -1</i>
  <i name="EDIFF">      0.00001000</i>
  <i type="int" name="ISIF">     2</i>
  <i name="ENCUT">    400.00000000</i>
  <i type="int" name="NGXF">    98</i>
  <i type="int" name="NGYF">    98</i>
  <i type="int" name="NGZF">   108</i>
  <i type="string" name="LREAL"> Auto</i>
  <i type="int" name="ISMEAR">     0</i>
  <i name="SIGMA">      0.05000000</i>
  <i type="logical" name="LWAVE"> F  </i>
  <i type="logical" name="LCHARG"> F  </i>
 </incar>
 <kpoints>
  <generation param="Gamma">
   <v type="int" name="divisions">      11       11       11 </v>
   <v name="usershift">      0.00000000       0.00000000       0.00000000 </v>
   <v name="genvec1">      0.09090909       0.00000000       0.00000000 </v>
   <v name="genvec2">      0.00000000       0.09090909       0.00000000 </v>
   <v name="genvec3">      0.00000000       0.00000000       0.09090909 </v>
   <v name="shift">      0.00000000       0.00000000       0.00000000 </v>
  </generation>
  <varray name="kpointlist" >
   <v>       0.00000000       0.00000000       0.00000000 </v>
   <v>       0.09090909      -0.00000000      -0.00000000 </v>
   <v>       0.18181818      -0.00000000      -0.00000000 </v>
   <v>       0.27272727      -0.00000000       0.00000000 </v>
   <v>       0.36363636      -0.00000000      -0.00000000 </v>
   <v>       0.45454545       0.00000000       0.00000000 </v>
   <v>       0.09090909       0.09090909       0.00000000 </v>
   <v>       0.18181818       0.09090909       0.00000000 </v>
   <v>       0.27272727       0.09090909       0.00000000 </v>
   <v>       0.36363636       0.09090909       0.00000000 </v>
   <v>       0.45454545       0.09090909       0.00000000 </v>
   <v>       0.18181818       0.18181818       0.00000000 </v>
   <v>       0.27272727       0.18181818      -0.00000000 </v>
   <v>       0.36363636       0.18181818       0.00000000 </v>
   <v>       0.27272727       0.27272727       0.00000000 </v>
   <v>       0.36363636       0.27272727       0.00000000 </v>
   <v>       0.00000000       0.00000000       0.09090909 </v>
   <v>       0.09090909      -0.00000000       0.09090909 </v>
   <v>       0.18181818      -0.00000000       0.09090909 </v>
   <v>       0.27272727      -0.00000000       0.09090909 </v>
   <v>       0.36363636      -0.00000000       0.09090909 </v>
   <v>       0.45454545       0.00000000       0.09090909 </v>
   <v>       0.09090909       0.09090909       0.09090909 </v>
   <v>       0.18181818       0.09090909       0.09090909 </v>
   <v>       0.27272727       0.09090909       0.09090909 </v>
   <v>       0.36363636       0.09090909       0.09090909 </v>
   <v>       0.45454545       0.09090909       0.09090909 </v>
   <v>       0.18181818       0.18181818       0.09090909 </v>
   <v>       0.27272727       0.18181818       0.09090909 </v>
   <v>       0.36363636       0.18181818       0.09090909 </v>
   <v>       0.27272727       0.27272727       0.09090909 </v>
   <v>       0.36363636       0.27272727       0.09090909 </v>
   <v>       0.00000000       0.00000000       0.18181818 </v>
   <v>       0.09090909      -0.00000000       0.18181818 </v>
   <v>       0.18181818      -0.00000000       0.18181818 </v>
   <v>       0.27272727      -0.00000000       0.18181818 </v>
   <v>       0.36363636      -0.00000000       0.18181818 </v>
   <v>       0.45454545       0.00000000       0.18181818 </v>
   <v>       0.09090909       0.09090909       0.18181818 </v>
   <v>       0.18181818       0.09090909       0.18181818 </v>
   <v>       0.27272727       0.09090909       0.18181818 </v>
   <v>       0.36363636       0.09090909       0.18181818 </v>
   <v>       0.45454545       0.09090909       0.18181818 </v>
   <v>       0.18181818       0.18181818       0.18181818 </v>
   <v>       0.27272727       0.18181818       0.18181818 </v>
   <v>       0.36363636       0.18181818       0.18181818 </v>
   <v>       0.27272727       0.27272727       0.18181818 </v>
   <v>       0.36363636       0.27272727       0.18181818 </v>
   <v>       0.00000000       0.00000000       0.27272727 </v>
   <v>       0.09090909      -0.00000000       0.27272727 </v>
   <v>       0.18181818      -0.00000000       0.27272727 </v>
   <v>       0.27272727      -0.00000000       0.27272727 </v>
   <v>       0.36363636      -0.00000000       0.27272727 </v>
   <v>       0.45454545       0.00000000       0.27272727 </v>
   <v>       0.09090909       0.09090909       0.27272727 </v>
   <v>       0.18181818       0.09090909       0.27272727 </v>
   <v>       0.27272727       0.09090909       0.27272727 </v>
   <v>       0.36363636       0.09090909       0.27272727 </v>
   <v>       0.45454545       0.09090909       0.27272727 </v>
   <v>       0.18181818       0.18181818       0.27272727 </v>
   <v>       0.27272727       0.18181818       0.27272727 </v>
   <v>       0.36363636       0.18181818       0.27272727 </v>
   <v>       0.27272727       0.27272727       0.27272727 </v>
   <v>       0.36363636       0.27272727       0.27272727 </v>
   <v>       0.00000000       0.00000000       0.36363636 </v>
   <v>       0.09090909      -0.00000000       0.36363636 </v>
   <v>       0.18181818      -0.00000000       0.36363636 </v>
   <v>       0.27272727      -0.00000000       0.36363636 </v>
   <v>       0.36363636      -0.00000000       0.36363636 </v>
   <v>       0.45454545       0.00000000       0.36363636 </v>
   <v>       0.09090909       0.09090909       0.36363636 </v>
   <v>       0.18181818       0.09090909       0.36363636 </v>
   <v>       0.27272727       0.09090909       0.36363636 </v>
   <v>       0.36363636       0.09090909       0.36363636 </v>
   <v>       0.45454545       0.09090909       0.36363636 </v>
   <v>       0.18181818       0.18181818       0.36363636 </v>
   <v>       0.27272727       0.18181818       0.36363636 </v>
   <v>       0.36363636       0.18181818       0.36363636 </v>
   <v>       0.27272727       0.27272727       0.36363636 </v>
   <v>       0.36363636       0.27272727       0.36363636 </v>
   <v>       0.00000000       0.00000000       0.45454545 </v>
   <v>       0.09090909      -0.00000000       0.45454545 </v>
   <v>       0.18181818      -0.00000000       0.45454545 </v>
   <v>       0.27272727      -0.00000000       0.45454545 </v>
   <v>       0.36363636      -0.00000000       0.45454545 </v>
   <v>       0.45454545       0.00000000       0.45454545 </v>
   <v>       0.09090909       0.09090909       0.45454545 </v>
   <v>       0.18181818       0.09090909       0.45454545 </v>
   <v>       0.27272727       0.09090909       0.45454545 </v>
   <v>       0.36363636       0.09090909       0.45454545 </v>
   <v>       0.45454545       0.09090909       0.45454545 </v>
   <v>       0.18181818       0.18181818       0.45454545 </v>
   <v>       0.27272727       0.18181818       0.45454545 </v>
   <v>       0.36363636       0.18181818       0.45454545 </v>
   <v>       0.27272727       0.27272727       0.45454545 </v>
   <v>       0.36363636       0.27272727       0.45454545 </v>
  </varray>
  <varray name="weights" >
   <v>       0.00075131 </v>
   <v>       0.00450789 </v>
   <v>       0.00450789 </v>
   <v>       0.00450789 </v>
   <v>       0.00450789 </v>
   <v>       0.00450789 </v>
   <v>       0.00450789 </v>
   <v>       0.00901578 </v>
   <v>       0.00901578 </v>
   <v>       0.00901578 </v>
   <v>       0.00450789 </v>
   <v>       0.00450789 </v>
   <v>       0.00901578 </v>
   <v>       0.00901578 </v>
   <v>       0.00450789 </v>
   <v>       0.00450789 </v>
   <v>       0.00150263 </v>
   <v>       0.00901578 </v>
   <v>       0.00901578 </v>
   <v>       0.00901578 </v>
   <v>       0.00901578 </v>
   <v>       0.00901578 </v>
   <v>       0.00901578 </v>
   <v>       0.01803156 </v>
   <v>       0.01803156 </v>
   <v>       0.01803156 </v>
   <v>       0.00901578 </v>
   <v>       0.00901578 </v>
   <v>       0.01803156 </v>
   <v>       0.01803156 </v>
   <v>       0.00901578 </v>
   <v>       0.00901578 </v>
   <v>       0.00150263 </v>
   <v>       0.00901578 </v>
   <v>       0.00901578 </v>
   <v>       0.00901578 </v>
   <v>       0.00901578 </v>
   <v>       0.00901578 </v>
   <v>       0.00901578 </v>
   <v>       0.01803156 </v>
   <v>       0.01803156 </v>
   <v>       0.01803156 </v>
   <v>       0.00901578 </v>
   <v>       0.00901578 </v>
   <v>       0.01803156 </v>
   <v>       0.01803156 </v>
   <v>       0.00901578 </v>
   <v>       0.00901578 </v>
   <v>       0.00150263 </v>
   <v>       0.00901578 </v>
   <v>       0.00901578 </v>
   <v>       0.00901578 </v>
   <v>       0.00901578 </v>
   <v>       0.00901578 </v>
   <v>       0.00901578 </v>
   <v>       0.01803156 </v>
   <v>       0.01803156 </v>
   <v>       0.01803156 </v>
   <v>       0.00901578 </v>
   <v>       0.00901578 </v>
   <v>       0.01803156 </v>
   <v>       0.01803156 </v>
   <v>       0.00901578 </v>
   <v>       0.00901578 </v>
   <v>       0.00150263 </v>
   <v>       0.00901578 </v>
   <v>       0.00901578 </v>
   <v>       0.00901578 </v>
   <v>       0.00901578 </v>
   <v>       0.00901578 </v>
   <v>       0.00901578 </v>
   <v>       0.01803156 </v>
   <v>       0.01803156 </v>
   <v>       0.01803156 </v>
   <v>       0.00901578 </v>
   <v>       0.00901578 </v>
   <v>       0.01803156 </v>
   <v>       0.01803156 </v>
   <v>       0.00901578 </v>
   <v>       0.00901578 </v>
   <v>       0.00150263 </v>
   <v>       0.00901578 </v>
   <v>       0.00901578 </v>
   <v>       0.00901578 </v>
   <v>       0.00901578 </v>
   <v>       0.00901578 </v>
   <v>       0.00901578 </v>
   <v>       0.01803156 </v>
   <v>       0.01803156 </v>
   <v>       0.01803156 </v>
   <v>       0.00901578 </v>
   <v>       0.00901578 </v>
   <v>       0.01803156 </v>
   <v>       0.01803156 </v>
   <v>       0.00901578 </v>
   <v>       0.00901578 </v>
  </varray>
 </kpoints>
 <parameters>
  <separator name="general" >
   <i type="string" name="SYSTEM">(Si O2)81  (P1) ~ Ciellie_MCM41 (MD</i>
   <i type="logical" name="LCOMPAT"> F  </i>
  </separator>
  <separator name="electronic" >
   <i type="string" name="PREC">accura</i>
   <i name="ENMAX">    400.00000000</i>
   <i name="ENAUG">    605.39200000</i>
   <i name="EDIFF">      0.00001000</i>
   <i type="int" name="IALGO">    38</i>
   <i type="int" name="IWAVPR">    10</i>
   <i type="int" name="NBANDS">   784</i>
   <i name="NELECT">   1296.00000000</i>
   <i type="int" name="TURBO">     0</i>
   <i type="int" name="IRESTART">     0</i>
   <i type="int" name="NREBOOT">     0</i>
   <i type="int" name="NMIN">     0</i>
   <i name="EREF">      0.00000000</i>
   <separator name="electronic smearing" >
    <i type="int" name="ISMEAR">     0</i>
    <i name="SIGMA">      0.05000000</i>
    <i name="KSPACING">      0.50000000</i>
    <i type="logical" name="KGAMMA"> T  </i>
   </separator>
   <separator name="electronic projectors" >
    <i type="logical" name="LREAL"> T  </i>
    <v name="ROPT">     -0.00025000     -0.00025000</v>
    <i type="int" name="LMAXPAW">  -100</i>
    <i type="int" name="LMAXMIX">     2</i>
    <i type="logical" name="NLSPLINE"> F  </i>
   </separator>
   <separator name="electronic startup" >
    <i type="int" name="ISTART">     0</i>
    <i type="int" name="ICHARG">     2</i>
    <i type="int" name="INIWAV">     1</i>
   </separator>
   <separator name="electronic spin" >
    <i type="int" name="ISPIN">     1</i>
    <i type="logical" name="LNONCOLLINEAR"> F  </i>
    <v name="MAGMOM">      1.00000000      1.00000000      1.00000000      1.00000000      1.00000000      1.00000000      1.00000000      1.00000000      1.00000000      1.00000000      1.00000000      1.00000000      1.00000000      1.00000000      1.00000000      1.00000000      1.00000000      1.00000000      1.00000000      1.00000000
      1.00000000      1.00000000      1.00000000      1.00000000      1.00000000      1.00000000      1.00000000      1.00000000      1.00000000      1.00000000      1.00000000      1.00000000      1.00000000      1.00000000      1.00000000      1.00000000      1.00000000      1.00000000      1.00000000      1.00000000
      1.00000000      1.00000000      1.00000000      1.00000000      1.00000000      1.00000000      1.00000000      1.00000000      1.00000000      1.00000000      1.00000000      1.00000000      1.00000000      1.00000000      1.00000000      1.00000000      1.00000000      1.00000000      1.00000000      1.00000000
      1.00000000      1.00000000      1.00000000      1.00000000      1.00000000      1.00000000      1.00000000      1.00000000      1.00000000      1.00000000      1.00000000      1.00000000      1.00000000      1.00000000      1.00000000      1.00000000      1.00000000      1.00000000      1.00000000      1.00000000
      1.00000000      1.00000000      1.00000000      1.00000000      1.00000000      1.00000000      1.00000000      1.00000000      1.00000000      1.00000000      1.00000000      1.00000000      1.00000000      1.00000000      1.00000000      1.00000000      1.00000000      1.00000000      1.00000000      1.00000000
      1.00000000      1.00000000      1.00000000      1.00000000      1.00000000      1.00000000      1.00000000      1.00000000      1.00000000      1.00000000      1.00000000      1.00000000      1.00000000      1.00000000      1.00000000      1.00000000      1.00000000      1.00000000      1.00000000      1.00000000
      1.00000000      1.00000000      1.00000000      1.00000000      1.00000000      1.00000000      1.00000000      1.00000000      1.00000000      1.00000000      1.00000000      1.00000000      1.00000000      1.00000000      1.00000000      1.00000000      1.00000000      1.00000000      1.00000000      1.00000000
      1.00000000      1.00000000      1.00000000      1.00000000      1.00000000      1.00000000      1.00000000      1.00000000      1.00000000      1.00000000      1.00000000      1.00000000      1.00000000      1.00000000      1.00000000      1.00000000      1.00000000      1.00000000      1.00000000      1.00000000
      1.00000000      1.00000000      1.00000000      1.00000000      1.00000000      1.00000000      1.00000000      1.00000000      1.00000000      1.00000000      1.00000000      1.00000000      1.00000000      1.00000000      1.00000000      1.00000000      1.00000000      1.00000000      1.00000000      1.00000000
      1.00000000      1.00000000      1.00000000      1.00000000      1.00000000      1.00000000      1.00000000      1.00000000      1.00000000      1.00000000      1.00000000      1.00000000      1.00000000      1.00000000      1.00000000      1.00000000      1.00000000      1.00000000      1.00000000      1.00000000
      1.00000000      1.00000000      1.00000000      1.00000000      1.00000000      1.00000000      1.00000000      1.00000000      1.00000000      1.00000000      1.00000000      1.00000000      1.00000000      1.00000000      1.00000000      1.00000000      1.00000000      1.00000000      1.00000000      1.00000000
      1.00000000      1.00000000      1.00000000      1.00000000      1.00000000      1.00000000      1.00000000      1.00000000      1.00000000      1.00000000      1.00000000      1.00000000      1.00000000      1.00000000      1.00000000      1.00000000      1.00000000      1.00000000      1.00000000      1.00000000
      1.00000000      1.00000000      1.00000000</v>
    <i name="NUPDOWN">     -1.00000000</i>
    <i type="logical" name="LSORBIT"> F  </i>
    <v name="SAXIS">      0.00000000      0.00000000      1.00000000</v>
    <i type="logical" name="LSPIRAL"> F  </i>
    <v name="QSPIRAL">      0.00000000      0.00000000      0.00000000</v>
    <i type="logical" name="LZEROZ"> F  </i>
   </separator>
   <separator name="electronic exchange-correlation" >
    <i type="logical" name="LASPH"> F  </i>
    <i type="logical" name="LMETAGGA"> F  </i>
   </separator>
   <separator name="electronic convergence" >
    <i type="int" name="NELM">    60</i>
    <i type="int" name="NELMDL">    -5</i>
    <i type="int" name="NELMIN">     2</i>
    <i name="ENINI">    400.00000000</i>
    <separator name="electronic convergence detail" >
     <i type="logical" name="LDIAG"> T  </i>
     <i type="logical" name="LSUBROT"> F  </i>
     <i name="WEIMIN">      0.00000000</i>
     <i name="EBREAK">      0.00000000</i>
     <i name="DEPER">      0.30000000</i>
     <i type="int" name="NRMM">     4</i>
     <i name="TIME">      0.40000000</i>
    </separator>
   </separator>
   <separator name="electronic mixer" >
    <i name="AMIX">      0.40000000</i>
    <i name="BMIX">      1.00000000</i>
    <i name="AMIN">      0.10000000</i>
    <i name="AMIX_MAG">      1.60000000</i>
    <i name="BMIX_MAG">      1.00000000</i>
    <separator name="electronic mixer details" >
     <i type="int" name="IMIX">     4</i>
     <i type="int" name="MAXMIX">   -45</i>
     <i name="WC">    100.00000000</i>
     <i type="int" name="INIMIX">     1</i>
     <i type="int" name="MIXPRE">     1</i>
     <i type="int" name="MREMOVE">     5</i>
    </separator>
   </separator>
   <separator name="electronic dipolcorrection" >
    <i type="logical" name="LDIPOL"> F  </i>
    <i type="logical" name="LMONO"> F  </i>
    <i type="int" name="IDIPOL">     0</i>
    <i name="EPSILON">      1.00000000</i>
    <v name="DIPOL">   -100.00000000   -100.00000000   -100.00000000</v>
    <i name="EFIELD">      0.00000000</i>
   </separator>
  </separator>
  <separator name="grids" >
   <i type="int" name="NGX">    98</i>
   <i type="int" name="NGY">    98</i>
   <i type="int" name="NGZ">   108</i>
   <i type="int" name="NGXF">    98</i>
   <i type="int" name="NGYF">    98</i>
   <i type="int" name="NGZF">   108</i>
   <i type="logical" name="ADDGRID"> F  </i>
  </separator>
  <separator name="ionic" >
   <i type="int" name="NSW">     0</i>
   <i type="int" name="IBRION">    -1</i>
   <i type="int" name="ISIF">     2</i>
   <i name="PSTRESS">      0.00000000</i>
   <i name="EDIFFG">      0.00010000</i>
   <i type="int" name="NFREE">     0</i>
   <i name="POTIM">      0.50000000</i>
   <i name="SMASS">     -3.00000000</i>
   <i name="SCALEE">      1.00000000</i>
  </separator>
  <separator name="ionic md" >
   <i name="TEBEG">      0.00010000</i>
   <i name="TEEND">      0.00010000</i>
   <i type="int" name="NBLOCK">     1</i>
   <i type="int" name="KBLOCK">     1</i>
   <i type="int" name="NPACO">   256</i>
   <i name="APACO">     16.00000000</i>
  </separator>
  <separator name="symmetry" >
   <i type="int" name="ISYM">     2</i>
   <i name="SYMPREC">      0.00001000</i>
  </separator>
  <separator name="dos" >
   <i type="logical" name="LORBIT"> F  </i>
   <v name="RWIGS">     -1.00000000     -1.00000000</v>
   <i type="int" name="NEDOS">   301</i>
   <i name="EMIN">     10.00000000</i>
   <i name="EMAX">    -10.00000000</i>
   <i name="EFERMI">      0.00000000</i>
  </separator>
  <separator name="writing" >
   <i type="int" name="NWRITE">     2</i>
   <i type="logical" name="LWAVE"> F  </i>
   <i type="logical" name="LCHARG"> F  </i>
   <i type="logical" name="LPARD"> F  </i>
   <i type="logical" name="LVTOT"> F  </i>
   <i type="logical" name="LVHAR"> F  </i>
   <i type="logical" name="LELF"> F  </i>
   <i type="logical" name="LOPTICS"> F  </i>
   <v name="STM">      0.00000000      0.00000000      0.00000000      0.00000000      0.00000000      0.00000000      0.00000000</v>
  </separator>
  <separator name="performance" >
   <i type="int" name="NPAR">     8</i>
   <i type="int" name="NSIM">     4</i>
   <i type="int" name="NBLK">    -1</i>
   <i type="logical" name="LPLANE"> T  </i>
   <i type="logical" name="LSCALAPACK"> T  </i>
   <i type="logical" name="LSCAAWARE"> T  </i>
   <i type="logical" name="LSCALU"> F  </i>
   <i type="logical" name="LASYNC"> F  </i>
   <i type="logical" name="LORBITALREAL"> F  </i>
  </separator>
  <separator name="miscellaneous" >
   <i type="int" name="IDIOT">     3</i>
   <i type="logical" name="LMUSIC"> F  </i>
   <v name="POMASS">     16.00000000     28.08500000</v>
   <v name="DARWINR">      0.00000000      0.00000000</v>
   <v name="DARWINV">      1.00000000      1.00000000</v>
   <i type="logical" name="LCORR"> T  </i>
  </separator>
  <i type="logical" name="GGA_COMPAT"> T  </i>
  <i type="logical" name="LBERRY"> F  </i>
  <i type="int" name="ICORELEVEL">     0</i>
  <i type="logical" name="LDAU"> F  </i>
  <i type="int" name="I_CONSTRAINED_M">     0</i>
  <separator name="electronic exchange-correlation" >
   <i type="string" name="GGA">--</i>
   <i type="int" name="VOSKOWN">     0</i>
   <i type="logical" name="LHFCALC"> F  </i>
   <i type="string" name="PRECFOCK"></i>
   <i type="logical" name="LSYMGRAD"> F  </i>
   <i type="logical" name="LHFONE"> F  </i>
   <i type="logical" name="LRHFCALC"> F  </i>
   <i type="logical" name="LTHOMAS"> F  </i>
   <i type="logical" name="LMODELHF"> F  </i>
   <i name="ENCUT4O">     -1.00000000</i>
   <i type="int" name="EXXOEP">     0</i>
   <i type="int" name="FOURORBIT">     0</i>
   <i name="AEXX">      0.00000000</i>
   <i name="HFALPHA">      0.00000000</i>
   <i name="MCALPHA">      0.00000000</i>
   <i name="ALDAX">      1.00000000</i>
   <i name="AGGAX">      1.00000000</i>
   <i name="ALDAC">      1.00000000</i>
   <i name="AGGAC">      1.00000000</i>
   <i type="int" name="NKREDX">     1</i>
   <i type="int" name="NKREDY">     1</i>
   <i type="int" name="NKREDZ">     1</i>
   <i type="logical" name="SHIFTRED"> F  </i>
   <i type="logical" name="ODDONLY"> F  </i>
   <i type="logical" name="EVENONLY"> F  </i>
   <i type="int" name="LMAXFOCK">     0</i>
   <i type="int" name="NMAXFOCKAE">     0</i>
   <i type="logical" name="LFOCKAEDFT"> F  </i>
   <i name="HFSCREEN">      0.00000000</i>
   <i name="HFSCREENC">      0.00000000</i>
   <i type="int" name="NBANDSGWLOW">     0</i>
  </separator>
  <separator name="vdW DFT" >
   <i type="logical" name="LUSE_VDW"> F  </i>
   <i name="Zab_VDW">     -0.84910000</i>
   <i name="PARAM1">      0.12340000</i>
   <i name="PARAM2">      1.00000000</i>
   <i name="PARAM3">      0.00000000</i>
  </separator>
  <separator name="model GW" >
   <i type="int" name="MODEL_GW">     0</i>
   <i name="MODEL_EPS0">      7.86828565</i>
   <i name="MODEL_ALPHA">      1.00000000</i>
  </separator>
  <separator name="linear response parameters" >
   <i type="logical" name="LEPSILON"> F  </i>
   <i type="logical" name="LRPA"> F  </i>
   <i type="logical" name="LNABLA"> F  </i>
   <i type="logical" name="LVEL"> F  </i>
   <i type="int" name="KINTER">     0</i>
   <i name="CSHIFT">      0.10000000</i>
   <i name="OMEGAMAX">     -1.00000000</i>
   <i name="DEG_THRESHOLD">      0.00200000</i>
  </separator>
  <separator name="orbital magnetization" >
   <i type="logical" name="NUCIND"> F  </i>
   <v name="MAGPOS">      0.00000000      0.00000000      0.00000000</v>
   <i type="logical" name="LNICSALL"> T  </i>
   <i type="logical" name="ORBITALMAG"> F  </i>
   <i type="logical" name="LMAGBLOCH"> F  </i>
   <i type="logical" name="LCHIMAG"> F  </i>
   <i type="logical" name="LGAUGE"> T  </i>
   <i type="int" name="MAGATOM">     0</i>
   <v name="MAGDIPOL">      0.00000000      0.00000000      0.00000000</v>
   <v name="AVECCONST">      0.00000000      0.00000000      0.00000000</v>
  </separator>
  <separator name="response functions" >
   <i type="logical" name="LADDER"> F  </i>
   <i type="logical" name="LFXC"> F  </i>
   <i type="logical" name="LHARTREE"> T  </i>
   <i type="int" name="IBSE">     0</i>
   <i type="logical" name="LTCTE"> F  </i>
   <i type="logical" name="LTETE"> F  </i>
   <i type="logical" name="LTRIPLET"> F  </i>
   <i type="logical" name="LFXCEPS"> F  </i>
   <i type="logical" name="LFXHEG"> F  </i>
   <i type="logical" name="L2ORDER"> F  </i>
   <i type="logical" name="LUSEW"> F  </i>
   <i name="ENCUTGW">     -2.00000000</i>
   <i name="ENCUTGWSOFT">     -2.00000000</i>
   <i name="ENCUTLF">     -1.00000000</i>
   <i type="int" name="LMAXMP2">    -1</i>
   <i name="SCISSOR">      0.00000000</i>
   <i type="int" name="NOMEGA">     0</i>
   <i type="int" name="NOMEGAR">     0</i>
   <i type="int" name="NBANDSGW">    -1</i>
   <i type="int" name="NBANDSO">    -1</i>
   <i type="int" name="NBANDSV">    -1</i>
   <i type="int" name="NELM">     1</i>
   <i type="int" name="DIM">     3</i>
   <i type="int" name="ANTIRES">     0</i>
   <i name="OMEGAMAX">    -30.00000000</i>
   <i name="OMEGAMIN">    -30.00000000</i>
   <i name="OMEGATL">   -200.00000000</i>
   <i type="int" name="OMEGAGRID">     0</i>
   <i name="CSHIFT">     -0.10000000</i>
   <i type="logical" name="SELFENERGY"> F  </i>
   <i type="logical" name="LSPECTRAL"> F  </i>
   <i type="logical" name="ODDONLYGW"> F  </i>
   <i type="logical" name="EVENONLYGW"> F  </i>
   <i type="int" name="NKREDLFX">     1</i>
   <i type="int" name="NKREDLFY">     1</i>
   <i type="int" name="NKREDLFZ">     1</i>
   <i type="int" name="MAXMEM">  1800</i>
   <i type="int" name="TELESCOPE">     0</i>
   <i type="int" name="TAUPAR">     1</i>
  </separator>
  <separator name="External order field" >
   <i name="OFIELD_KAPPA">      0.00000000</i>
   <v name="OFIELD_K">      0.00000000      0.00000000      0.00000000</v>
   <i name="OFIELD_Q6_NEAR">      0.00000000</i>
   <i name="OFIELD_Q6_FAR">      0.00000000</i>
   <i name="OFIELD_A">      0.00000000</i>
  </separator>
 </parameters>
 <atominfo>
  <atoms>     243 </atoms>
  <types>       2 </types>
  <array name="atoms" >
   <dimension dim="1">ion</dimension>
   <field type="string">element</field>
   <field type="int">atomtype</field>
   <set>
    <rc><c>O </c><c>   1</c></rc>
    <rc><c>O </c><c>   1</c></rc>
    <rc><c>O </c><c>   1</c></rc>
    <rc><c>O </c><c>   1</c></rc>
    <rc><c>O </c><c>   1</c></rc>
    <rc><c>O </c><c>   1</c></rc>
    <rc><c>O </c><c>   1</c></rc>
    <rc><c>O </c><c>   1</c></rc>
    <rc><c>O </c><c>   1</c></rc>
    <rc><c>O </c><c>   1</c></rc>
    <rc><c>O </c><c>   1</c></rc>
    <rc><c>O </c><c>   1</c></rc>
    <rc><c>O </c><c>   1</c></rc>
    <rc><c>O </c><c>   1</c></rc>
    <rc><c>O </c><c>   1</c></rc>
    <rc><c>O </c><c>   1</c></rc>
    <rc><c>O </c><c>   1</c></rc>
    <rc><c>O </c><c>   1</c></rc>
    <rc><c>O </c><c>   1</c></rc>
    <rc><c>O </c><c>   1</c></rc>
    <rc><c>O </c><c>   1</c></rc>
    <rc><c>O </c><c>   1</c></rc>
    <rc><c>O </c><c>   1</c></rc>
    <rc><c>O </c><c>   1</c></rc>
    <rc><c>O </c><c>   1</c></rc>
    <rc><c>O </c><c>   1</c></rc>
    <rc><c>O </c><c>   1</c></rc>
    <rc><c>O </c><c>   1</c></rc>
    <rc><c>O </c><c>   1</c></rc>
    <rc><c>O </c><c>   1</c></rc>
    <rc><c>O </c><c>   1</c></rc>
    <rc><c>O </c><c>   1</c></rc>
    <rc><c>O </c><c>   1</c></rc>
    <rc><c>O </c><c>   1</c></rc>
    <rc><c>O </c><c>   1</c></rc>
    <rc><c>O </c><c>   1</c></rc>
    <rc><c>O </c><c>   1</c></rc>
    <rc><c>O </c><c>   1</c></rc>
    <rc><c>O </c><c>   1</c></rc>
    <rc><c>O </c><c>   1</c></rc>
    <rc><c>O </c><c>   1</c></rc>
    <rc><c>O </c><c>   1</c></rc>
    <rc><c>O </c><c>   1</c></rc>
    <rc><c>O </c><c>   1</c></rc>
    <rc><c>O </c><c>   1</c></rc>
    <rc><c>O </c><c>   1</c></rc>
    <rc><c>O </c><c>   1</c></rc>
    <rc><c>O </c><c>   1</c></rc>
    <rc><c>O </c><c>   1</c></rc>
    <rc><c>O </c><c>   1</c></rc>
    <rc><c>O </c><c>   1</c></rc>
    <rc><c>O </c><c>   1</c></rc>
    <rc><c>O </c><c>   1</c></rc>
    <rc><c>O </c><c>   1</c></rc>
    <rc><c>O </c><c>   1</c></rc>
    <rc><c>O </c><c>   1</c></rc>
    <rc><c>O </c><c>   1</c></rc>
    <rc><c>O </c><c>   1</c></rc>
    <rc><c>O </c><c>   1</c></rc>
    <rc><c>O </c><c>   1</c></rc>
    <rc><c>O </c><c>   1</c></rc>
    <rc><c>O </c><c>   1</c></rc>
    <rc><c>O </c><c>   1</c></rc>
    <rc><c>O </c><c>   1</c></rc>
    <rc><c>O </c><c>   1</c></rc>
    <rc><c>O </c><c>   1</c></rc>
    <rc><c>O </c><c>   1</c></rc>
    <rc><c>O </c><c>   1</c></rc>
    <rc><c>O </c><c>   1</c></rc>
    <rc><c>O </c><c>   1</c></rc>
    <rc><c>O </c><c>   1</c></rc>
    <rc><c>O </c><c>   1</c></rc>
    <rc><c>O </c><c>   1</c></rc>
    <rc><c>O </c><c>   1</c></rc>
    <rc><c>O </c><c>   1</c></rc>
    <rc><c>O </c><c>   1</c></rc>
    <rc><c>O </c><c>   1</c></rc>
    <rc><c>O </c><c>   1</c></rc>
    <rc><c>O </c><c>   1</c></rc>
    <rc><c>O </c><c>   1</c></rc>
    <rc><c>O </c><c>   1</c></rc>
    <rc><c>O </c><c>   1</c></rc>
    <rc><c>O </c><c>   1</c></rc>
    <rc><c>O </c><c>   1</c></rc>
    <rc><c>O </c><c>   1</c></rc>
    <rc><c>O </c><c>   1</c></rc>
    <rc><c>O </c><c>   1</c></rc>
    <rc><c>O </c><c>   1</c></rc>
    <rc><c>O </c><c>   1</c></rc>
    <rc><c>O </c><c>   1</c></rc>
    <rc><c>O </c><c>   1</c></rc>
    <rc><c>O </c><c>   1</c></rc>
    <rc><c>O </c><c>   1</c></rc>
    <rc><c>O </c><c>   1</c></rc>
    <rc><c>O </c><c>   1</c></rc>
    <rc><c>O </c><c>   1</c></rc>
    <rc><c>O </c><c>   1</c></rc>
    <rc><c>O </c><c>   1</c></rc>
    <rc><c>O </c><c>   1</c></rc>
    <rc><c>O </c><c>   1</c></rc>
    <rc><c>O </c><c>   1</c></rc>
    <rc><c>O </c><c>   1</c></rc>
    <rc><c>O </c><c>   1</c></rc>
    <rc><c>O </c><c>   1</c></rc>
    <rc><c>O </c><c>   1</c></rc>
    <rc><c>O </c><c>   1</c></rc>
    <rc><c>O </c><c>   1</c></rc>
    <rc><c>O </c><c>   1</c></rc>
    <rc><c>O </c><c>   1</c></rc>
    <rc><c>O </c><c>   1</c></rc>
    <rc><c>O </c><c>   1</c></rc>
    <rc><c>O </c><c>   1</c></rc>
    <rc><c>O </c><c>   1</c></rc>
    <rc><c>O </c><c>   1</c></rc>
    <rc><c>O </c><c>   1</c></rc>
    <rc><c>O </c><c>   1</c></rc>
    <rc><c>O </c><c>   1</c></rc>
    <rc><c>O </c><c>   1</c></rc>
    <rc><c>O </c><c>   1</c></rc>
    <rc><c>O </c><c>   1</c></rc>
    <rc><c>O </c><c>   1</c></rc>
    <rc><c>O </c><c>   1</c></rc>
    <rc><c>O </c><c>   1</c></rc>
    <rc><c>O </c><c>   1</c></rc>
    <rc><c>O </c><c>   1</c></rc>
    <rc><c>O </c><c>   1</c></rc>
    <rc><c>O </c><c>   1</c></rc>
    <rc><c>O </c><c>   1</c></rc>
    <rc><c>O </c><c>   1</c></rc>
    <rc><c>O </c><c>   1</c></rc>
    <rc><c>O </c><c>   1</c></rc>
    <rc><c>O </c><c>   1</c></rc>
    <rc><c>O </c><c>   1</c></rc>
    <rc><c>O </c><c>   1</c></rc>
    <rc><c>O </c><c>   1</c></rc>
    <rc><c>O </c><c>   1</c></rc>
    <rc><c>O </c><c>   1</c></rc>
    <rc><c>O </c><c>   1</c></rc>
    <rc><c>O </c><c>   1</c></rc>
    <rc><c>O </c><c>   1</c></rc>
    <rc><c>O </c><c>   1</c></rc>
    <rc><c>O </c><c>   1</c></rc>
    <rc><c>O </c><c>   1</c></rc>
    <rc><c>O </c><c>   1</c></rc>
    <rc><c>O </c><c>   1</c></rc>
    <rc><c>O </c><c>   1</c></rc>
    <rc><c>O </c><c>   1</c></rc>
    <rc><c>O </c><c>   1</c></rc>
    <rc><c>O </c><c>   1</c></rc>
    <rc><c>O </c><c>   1</c></rc>
    <rc><c>O </c><c>   1</c></rc>
    <rc><c>O </c><c>   1</c></rc>
    <rc><c>O </c><c>   1</c></rc>
    <rc><c>O </c><c>   1</c></rc>
    <rc><c>O </c><c>   1</c></rc>
    <rc><c>O </c><c>   1</c></rc>
    <rc><c>O </c><c>   1</c></rc>
    <rc><c>O </c><c>   1</c></rc>
    <rc><c>O </c><c>   1</c></rc>
    <rc><c>O </c><c>   1</c></rc>
    <rc><c>O </c><c>   1</c></rc>
    <rc><c>O </c><c>   1</c></rc>
    <rc><c>Si</c><c>   2</c></rc>
    <rc><c>Si</c><c>   2</c></rc>
    <rc><c>Si</c><c>   2</c></rc>
    <rc><c>Si</c><c>   2</c></rc>
    <rc><c>Si</c><c>   2</c></rc>
    <rc><c>Si</c><c>   2</c></rc>
    <rc><c>Si</c><c>   2</c></rc>
    <rc><c>Si</c><c>   2</c></rc>
    <rc><c>Si</c><c>   2</c></rc>
    <rc><c>Si</c><c>   2</c></rc>
    <rc><c>Si</c><c>   2</c></rc>
    <rc><c>Si</c><c>   2</c></rc>
    <rc><c>Si</c><c>   2</c></rc>
    <rc><c>Si</c><c>   2</c></rc>
    <rc><c>Si</c><c>   2</c></rc>
    <rc><c>Si</c><c>   2</c></rc>
    <rc><c>Si</c><c>   2</c></rc>
    <rc><c>Si</c><c>   2</c></rc>
    <rc><c>Si</c><c>   2</c></rc>
    <rc><c>Si</c><c>   2</c></rc>
    <rc><c>Si</c><c>   2</c></rc>
    <rc><c>Si</c><c>   2</c></rc>
    <rc><c>Si</c><c>   2</c></rc>
    <rc><c>Si</c><c>   2</c></rc>
    <rc><c>Si</c><c>   2</c></rc>
    <rc><c>Si</c><c>   2</c></rc>
    <rc><c>Si</c><c>   2</c></rc>
    <rc><c>Si</c><c>   2</c></rc>
    <rc><c>Si</c><c>   2</c></rc>
    <rc><c>Si</c><c>   2</c></rc>
    <rc><c>Si</c><c>   2</c></rc>
    <rc><c>Si</c><c>   2</c></rc>
    <rc><c>Si</c><c>   2</c></rc>
    <rc><c>Si</c><c>   2</c></rc>
    <rc><c>Si</c><c>   2</c></rc>
    <rc><c>Si</c><c>   2</c></rc>
    <rc><c>Si</c><c>   2</c></rc>
    <rc><c>Si</c><c>   2</c></rc>
    <rc><c>Si</c><c>   2</c></rc>
    <rc><c>Si</c><c>   2</c></rc>
    <rc><c>Si</c><c>   2</c></rc>
    <rc><c>Si</c><c>   2</c></rc>
    <rc><c>Si</c><c>   2</c></rc>
    <rc><c>Si</c><c>   2</c></rc>
    <rc><c>Si</c><c>   2</c></rc>
    <rc><c>Si</c><c>   2</c></rc>
    <rc><c>Si</c><c>   2</c></rc>
    <rc><c>Si</c><c>   2</c></rc>
    <rc><c>Si</c><c>   2</c></rc>
    <rc><c>Si</c><c>   2</c></rc>
    <rc><c>Si</c><c>   2</c></rc>
    <rc><c>Si</c><c>   2</c></rc>
    <rc><c>Si</c><c>   2</c></rc>
    <rc><c>Si</c><c>   2</c></rc>
    <rc><c>Si</c><c>   2</c></rc>
    <rc><c>Si</c><c>   2</c></rc>
    <rc><c>Si</c><c>   2</c></rc>
    <rc><c>Si</c><c>   2</c></rc>
    <rc><c>Si</c><c>   2</c></rc>
    <rc><c>Si</c><c>   2</c></rc>
    <rc><c>Si</c><c>   2</c></rc>
    <rc><c>Si</c><c>   2</c></rc>
    <rc><c>Si</c><c>   2</c></rc>
    <rc><c>Si</c><c>   2</c></rc>
    <rc><c>Si</c><c>   2</c></rc>
    <rc><c>Si</c><c>   2</c></rc>
    <rc><c>Si</c><c>   2</c></rc>
    <rc><c>Si</c><c>   2</c></rc>
    <rc><c>Si</c><c>   2</c></rc>
    <rc><c>Si</c><c>   2</c></rc>
    <rc><c>Si</c><c>   2</c></rc>
    <rc><c>Si</c><c>   2</c></rc>
    <rc><c>Si</c><c>   2</c></rc>
    <rc><c>Si</c><c>   2</c></rc>
    <rc><c>Si</c><c>   2</c></rc>
    <rc><c>Si</c><c>   2</c></rc>
    <rc><c>Si</c><c>   2</c></rc>
    <rc><c>Si</c><c>   2</c></rc>
    <rc><c>Si</c><c>   2</c></rc>
    <rc><c>Si</c><c>   2</c></rc>
    <rc><c>Si</c><c>   2</c></rc>
   </set>
  </array>
  <array name="atomtypes" >
   <dimension dim="1">type</dimension>
   <field type="int">atomspertype</field>
   <field type="string">element</field>
   <field>mass</field>
   <field>valence</field>
   <field type="string">pseudopotential</field>
   <set>
    <rc><c> 162</c><c>O </c><c>     16.00000000</c><c>      6.00000000</c><c>  PAW_PBE O 08Apr2002                   </c></rc>
    <rc><c>  81</c><c>Si</c><c>     28.08500000</c><c>      4.00000000</c><c>  PAW_PBE Si 05Jan2001                  </c></rc>
   </set>
  </array>
 </atominfo>
 <structure name="initialpos" >
  <crystal>
   <varray name="basis" >
    <v>      14.99190030       0.00000000       0.00000000 </v>
    <v>      -7.49594983      12.98336669       0.00000000 </v>
    <v>       0.00000030       0.00000052      16.37160030 </v>
   </varray>
   <i name="volume">   3186.65568995 </i>
   <varray name="rec_basis" >
    <v>       0.06670268       0.03851081      -0.00000000 </v>
    <v>       0.00000000       0.07702162      -0.00000000 </v>
    <v>       0.00000000       0.00000000       0.06108138 </v>
   </varray>
  </crystal>
  <varray name="positions" >
   <v>       0.06921667       0.13843334       0.00000000 </v>
   <v>       0.26411666       0.06921667       0.11111111 </v>
   <v>       0.19489999       0.26411666       0.22222222 </v>
   <v>       0.26411666       0.19489999       0.00000000 </v>
   <v>       0.06921667       0.26411666       0.11111111 </v>
   <v>       0.13843334       0.06921667       0.22222222 </v>
   <v>       0.06921667       0.13843334       0.33333333 </v>
   <v>       0.26411666       0.06921667       0.44444444 </v>
   <v>       0.19489999       0.26411666       0.55555556 </v>
   <v>       0.26411666       0.19489999       0.33333333 </v>
   <v>       0.06921667       0.26411666       0.44444444 </v>
   <v>       0.13843334       0.06921667       0.55555556 </v>
   <v>       0.06921667       0.13843334       0.66666667 </v>
   <v>       0.26411666       0.06921667       0.77777778 </v>
   <v>       0.19489999       0.26411666       0.88888889 </v>
   <v>       0.26411666       0.19489999       0.66666667 </v>
   <v>       0.06921667       0.26411666       0.77777778 </v>
   <v>       0.13843334       0.06921667       0.88888889 </v>
   <v>       0.06921667       0.47176667       0.00000000 </v>
   <v>       0.26411666       0.40255000       0.11111111 </v>
   <v>       0.19489999       0.59745000       0.22222222 </v>
   <v>       0.26411666       0.52823333       0.00000000 </v>
   <v>       0.06921667       0.59745000       0.11111111 </v>
   <v>       0.13843334       0.40255000       0.22222222 </v>
   <v>       0.06921667       0.47176667       0.33333333 </v>
   <v>       0.26411666       0.40255000       0.44444444 </v>
   <v>       0.19489999       0.59745000       0.55555556 </v>
   <v>       0.26411666       0.52823333       0.33333333 </v>
   <v>       0.06921667       0.59745000       0.44444444 </v>
   <v>       0.13843334       0.40255000       0.55555556 </v>
   <v>       0.06921667       0.47176667       0.66666667 </v>
   <v>       0.26411666       0.40255000       0.77777778 </v>
   <v>       0.19489999       0.59745000       0.88888889 </v>
   <v>       0.26411666       0.52823333       0.66666667 </v>
   <v>       0.06921667       0.59745000       0.77777778 </v>
   <v>       0.13843334       0.40255000       0.88888889 </v>
   <v>       0.06921667       0.80510001       0.00000000 </v>
   <v>       0.26411666       0.73588334       0.11111111 </v>
   <v>       0.19489999       0.93078333       0.22222222 </v>
   <v>       0.26411666       0.86156666       0.00000000 </v>
   <v>       0.06921667       0.93078333       0.11111111 </v>
   <v>       0.13843334       0.73588334       0.22222222 </v>
   <v>       0.06921667       0.80510001       0.33333333 </v>
   <v>       0.26411666       0.73588334       0.44444444 </v>
   <v>       0.19489999       0.93078333       0.55555556 </v>
   <v>       0.26411666       0.86156666       0.33333333 </v>
   <v>       0.06921667       0.93078333       0.44444444 </v>
   <v>       0.13843334       0.73588334       0.55555556 </v>
   <v>       0.06921667       0.80510001       0.66666667 </v>
   <v>       0.26411666       0.73588334       0.77777778 </v>
   <v>       0.19489999       0.93078333       0.88888889 </v>
   <v>       0.26411666       0.86156666       0.66666667 </v>
   <v>       0.06921667       0.93078333       0.77777778 </v>
   <v>       0.13843334       0.73588334       0.88888889 </v>
   <v>       0.40255000       0.13843334       0.00000000 </v>
   <v>       0.59745000       0.06921667       0.11111111 </v>
   <v>       0.52823333       0.26411666       0.22222222 </v>
   <v>       0.59745000       0.19489999       0.00000000 </v>
   <v>       0.40255000       0.26411666       0.11111111 </v>
   <v>       0.47176667       0.06921667       0.22222222 </v>
   <v>       0.40255000       0.13843334       0.33333333 </v>
   <v>       0.59745000       0.06921667       0.44444444 </v>
   <v>       0.52823333       0.26411666       0.55555556 </v>
   <v>       0.59745000       0.19489999       0.33333333 </v>
   <v>       0.40255000       0.26411666       0.44444444 </v>
   <v>       0.47176667       0.06921667       0.55555556 </v>
   <v>       0.40255000       0.13843334       0.66666667 </v>
   <v>       0.59745000       0.06921667       0.77777778 </v>
   <v>       0.52823333       0.26411666       0.88888889 </v>
   <v>       0.59745000       0.19489999       0.66666667 </v>
   <v>       0.40255000       0.26411666       0.77777778 </v>
   <v>       0.47176667       0.06921667       0.88888889 </v>
   <v>       0.40255000       0.47176667       0.00000000 </v>
   <v>       0.59745000       0.40255000       0.11111111 </v>
   <v>       0.52823333       0.59745000       0.22222222 </v>
   <v>       0.59745000       0.52823333       0.00000000 </v>
   <v>       0.40255000       0.59745000       0.11111111 </v>
   <v>       0.47176667       0.40255000       0.22222222 </v>
   <v>       0.40255000       0.47176667       0.33333333 </v>
   <v>       0.59745000       0.40255000       0.44444444 </v>
   <v>       0.52823333       0.59745000       0.55555556 </v>
   <v>       0.59745000       0.52823333       0.33333333 </v>
   <v>       0.40255000       0.59745000       0.44444444 </v>
   <v>       0.47176667       0.40255000       0.55555556 </v>
   <v>       0.40255000       0.47176667       0.66666667 </v>
   <v>       0.59745000       0.40255000       0.77777778 </v>
   <v>       0.52823333       0.59745000       0.88888889 </v>
   <v>       0.59745000       0.52823333       0.66666667 </v>
   <v>       0.40255000       0.59745000       0.77777778 </v>
   <v>       0.47176667       0.40255000       0.88888889 </v>
   <v>       0.40255000       0.80510001       0.00000000 </v>
   <v>       0.59745000       0.73588334       0.11111111 </v>
   <v>       0.52823333       0.93078333       0.22222222 </v>
   <v>       0.59745000       0.86156666       0.00000000 </v>
   <v>       0.40255000       0.93078333       0.11111111 </v>
   <v>       0.47176667       0.73588334       0.22222222 </v>
   <v>       0.40255000       0.80510001       0.33333333 </v>
   <v>       0.59745000       0.73588334       0.44444444 </v>
   <v>       0.52823333       0.93078333       0.55555556 </v>
   <v>       0.59745000       0.86156666       0.33333333 </v>
   <v>       0.40255000       0.93078333       0.44444444 </v>
   <v>       0.47176667       0.73588334       0.55555556 </v>
   <v>       0.40255000       0.80510001       0.66666667 </v>
   <v>       0.59745000       0.73588334       0.77777778 </v>
   <v>       0.52823333       0.93078333       0.88888889 </v>
   <v>       0.59745000       0.86156666       0.66666667 </v>
   <v>       0.40255000       0.93078333       0.77777778 </v>
   <v>       0.47176667       0.73588334       0.88888889 </v>
   <v>       0.73588334       0.13843334       0.00000000 </v>
   <v>       0.93078333       0.06921667       0.11111111 </v>
   <v>       0.86156666       0.26411666       0.22222222 </v>
   <v>       0.93078333       0.19489999       0.00000000 </v>
   <v>       0.73588334       0.26411666       0.11111111 </v>
   <v>       0.80510001       0.06921667       0.22222222 </v>
   <v>       0.73588334       0.13843334       0.33333333 </v>
   <v>       0.93078333       0.06921667       0.44444444 </v>
   <v>       0.86156666       0.26411666       0.55555556 </v>
   <v>       0.93078333       0.19489999       0.33333333 </v>
   <v>       0.73588334       0.26411666       0.44444444 </v>
   <v>       0.80510001       0.06921667       0.55555556 </v>
   <v>       0.73588334       0.13843334       0.66666667 </v>
   <v>       0.93078333       0.06921667       0.77777778 </v>
   <v>       0.86156666       0.26411666       0.88888889 </v>
   <v>       0.93078333       0.19489999       0.66666667 </v>
   <v>       0.73588334       0.26411666       0.77777778 </v>
   <v>       0.80510001       0.06921667       0.88888889 </v>
   <v>       0.73588334       0.47176667       0.00000000 </v>
   <v>       0.93078333       0.40255000       0.11111111 </v>
   <v>       0.86156666       0.59745000       0.22222222 </v>
   <v>       0.93078333       0.52823333       0.00000000 </v>
   <v>       0.73588334       0.59745000       0.11111111 </v>
   <v>       0.80510001       0.40255000       0.22222222 </v>
   <v>       0.73588334       0.47176667       0.33333333 </v>
   <v>       0.93078333       0.40255000       0.44444444 </v>
   <v>       0.86156666       0.59745000       0.55555556 </v>
   <v>       0.93078333       0.52823333       0.33333333 </v>
   <v>       0.73588334       0.59745000       0.44444444 </v>
   <v>       0.80510001       0.40255000       0.55555556 </v>
   <v>       0.73588334       0.47176667       0.66666667 </v>
   <v>       0.93078333       0.40255000       0.77777778 </v>
   <v>       0.86156666       0.59745000       0.88888889 </v>
   <v>       0.93078333       0.52823333       0.66666667 </v>
   <v>       0.73588334       0.59745000       0.77777778 </v>
   <v>       0.80510001       0.40255000       0.88888889 </v>
   <v>       0.73588334       0.80510001       0.00000000 </v>
   <v>       0.93078333       0.73588334       0.11111111 </v>
   <v>       0.86156666       0.93078333       0.22222222 </v>
   <v>       0.93078333       0.86156666       0.00000000 </v>
   <v>       0.73588334       0.93078333       0.11111111 </v>
   <v>       0.80510001       0.73588334       0.22222222 </v>
   <v>       0.73588334       0.80510001       0.33333333 </v>
   <v>       0.93078333       0.73588334       0.44444444 </v>
   <v>       0.86156666       0.93078333       0.55555556 </v>
   <v>       0.93078333       0.86156666       0.33333333 </v>
   <v>       0.73588334       0.93078333       0.44444444 </v>
   <v>       0.80510001       0.73588334       0.55555556 </v>
   <v>       0.73588334       0.80510001       0.66666667 </v>
   <v>       0.93078333       0.73588334       0.77777778 </v>
   <v>       0.86156666       0.93078333       0.88888889 </v>
   <v>       0.93078333       0.86156666       0.66666667 </v>
   <v>       0.73588334       0.93078333       0.77777778 </v>
   <v>       0.80510001       0.73588334       0.88888889 </v>
   <v>       0.16666667       0.00000000       0.16666667 </v>
   <v>       0.16666667       0.16666667       0.27777778 </v>
   <v>       0.00000000       0.16666667       0.05555556 </v>
   <v>       0.16666667       0.00000000       0.50000000 </v>
   <v>       0.16666667       0.16666667       0.61111111 </v>
   <v>       0.00000000       0.16666667       0.38888889 </v>
   <v>       0.16666667       0.00000000       0.83333333 </v>
   <v>       0.16666667       0.16666667       0.94444444 </v>
   <v>       0.00000000       0.16666667       0.72222222 </v>
   <v>       0.16666667       0.33333333       0.16666667 </v>
   <v>       0.16666667       0.50000000       0.27777778 </v>
   <v>       0.00000000       0.50000000       0.05555556 </v>
   <v>       0.16666667       0.33333333       0.50000000 </v>
   <v>       0.16666667       0.50000000       0.61111111 </v>
   <v>       0.00000000       0.50000000       0.38888889 </v>
   <v>       0.16666667       0.33333333       0.83333333 </v>
   <v>       0.16666667       0.50000000       0.94444444 </v>
   <v>       0.00000000       0.50000000       0.72222222 </v>
   <v>       0.16666667       0.66666667       0.16666667 </v>
   <v>       0.16666667       0.83333333       0.27777778 </v>
   <v>       0.00000000       0.83333333       0.05555556 </v>
   <v>       0.16666667       0.66666667       0.50000000 </v>
   <v>       0.16666667       0.83333333       0.61111111 </v>
   <v>       0.00000000       0.83333333       0.38888889 </v>
   <v>       0.16666667       0.66666667       0.83333333 </v>
   <v>       0.16666667       0.83333333       0.94444444 </v>
   <v>       0.00000000       0.83333333       0.72222222 </v>
   <v>       0.50000000       0.00000000       0.16666667 </v>
   <v>       0.50000000       0.16666667       0.27777778 </v>
   <v>       0.33333333       0.16666667       0.05555556 </v>
   <v>       0.50000000       0.00000000       0.50000000 </v>
   <v>       0.50000000       0.16666667       0.61111111 </v>
   <v>       0.33333333       0.16666667       0.38888889 </v>
   <v>       0.50000000       0.00000000       0.83333333 </v>
   <v>       0.50000000       0.16666667       0.94444444 </v>
   <v>       0.33333333       0.16666667       0.72222222 </v>
   <v>       0.50000000       0.33333333       0.16666667 </v>
   <v>       0.50000000       0.50000000       0.27777778 </v>
   <v>       0.33333333       0.50000000       0.05555556 </v>
   <v>       0.50000000       0.33333333       0.50000000 </v>
   <v>       0.50000000       0.50000000       0.61111111 </v>
   <v>       0.33333333       0.50000000       0.38888889 </v>
   <v>       0.50000000       0.33333333       0.83333333 </v>
   <v>       0.50000000       0.50000000       0.94444444 </v>
   <v>       0.33333333       0.50000000       0.72222222 </v>
   <v>       0.50000000       0.66666667       0.16666667 </v>
   <v>       0.50000000       0.83333333       0.27777778 </v>
   <v>       0.33333333       0.83333333       0.05555556 </v>
   <v>       0.50000000       0.66666667       0.50000000 </v>
   <v>       0.50000000       0.83333333       0.61111111 </v>
   <v>       0.33333333       0.83333333       0.38888889 </v>
   <v>       0.50000000       0.66666667       0.83333333 </v>
   <v>       0.50000000       0.83333333       0.94444444 </v>
   <v>       0.33333333       0.83333333       0.72222222 </v>
   <v>       0.83333333       0.00000000       0.16666667 </v>
   <v>       0.83333333       0.16666667       0.27777778 </v>
   <v>       0.66666667       0.16666667       0.05555556 </v>
   <v>       0.83333333       0.00000000       0.50000000 </v>
   <v>       0.83333333       0.16666667       0.61111111 </v>
   <v>       0.66666667       0.16666667       0.38888889 </v>
   <v>       0.83333333       0.00000000       0.83333333 </v>
   <v>       0.83333333       0.16666667       0.94444444 </v>
   <v>       0.66666667       0.16666667       0.72222222 </v>
   <v>       0.83333333       0.33333333       0.16666667 </v>
   <v>       0.83333333       0.50000000       0.27777778 </v>
   <v>       0.66666667       0.50000000       0.05555556 </v>
   <v>       0.83333333       0.33333333       0.50000000 </v>
   <v>       0.83333333       0.50000000       0.61111111 </v>
   <v>       0.66666667       0.50000000       0.38888889 </v>
   <v>       0.83333333       0.33333333       0.83333333 </v>
   <v>       0.83333333       0.50000000       0.94444444 </v>
   <v>       0.66666667       0.50000000       0.72222222 </v>
   <v>       0.83333333       0.66666667       0.16666667 </v>
   <v>       0.83333333       0.83333333       0.27777778 </v>
   <v>       0.66666667       0.83333333       0.05555556 </v>
   <v>       0.83333333       0.66666667       0.50000000 </v>
   <v>       0.83333333       0.83333333       0.61111111 </v>
   <v>       0.66666667       0.83333333       0.38888889 </v>
   <v>       0.83333333       0.66666667       0.83333333 </v>
   <v>       0.83333333       0.83333333       0.94444444 </v>
   <v>       0.66666667       0.83333333       0.72222222 </v>
  </varray>
 </structure>
 <calculation>
  <scstep>
   <time name="dav">  299.94  299.97</time>
   <time name="total">  300.03  300.07</time>
   <energy>
    <i name="alphaZ">   1803.06568644 </i>
    <i name="ewald"> -48244.28156214 </i>
    <i name="hartreedc"> -27084.92649043 </i>
    <i name="XCdc">   3831.99201685 </i>
    <i name="pawpsdc">  63279.04302504 </i>
    <i name="pawaedc"> -62145.37184510 </i>
    <i name="eentropy">     -0.04418677 </i>
    <i name="bandstr">  -1605.70257307 </i>
    <i name="atom">  78374.96320226 </i>
    <i name="e_fr_energy">   8208.73727307 </i>
    <i name="e_wo_entrp">   8208.78145984 </i>
    <i name="e_0_energy">   8208.75936646 </i>
   </energy>
  </scstep>
  <scstep>
   <time name="dav">  337.65  337.71</time>
   <time name="total">  337.67  337.74</time>
   <energy>
    <i name="e_fr_energy">  -1474.35939500 </i>
    <i name="e_wo_entrp">  -1474.35939500 </i>
    <i name="e_0_energy">  -1474.35939500 </i>
   </energy>
  </scstep>
  <scstep>
   <time name="dav">  336.39  336.42</time>
   <time name="total">  336.41  336.45</time>
   <energy>
    <i name="e_fr_energy">  -2174.05943364 </i>
    <i name="e_wo_entrp">  -2174.05943364 </i>
    <i name="e_0_energy">  -2174.05943364 </i>
   </energy>
  </scstep>
  <scstep>
   <time name="dav">  340.38  340.46</time>
   <time name="total">  340.41  340.49</time>
   <energy>
    <i name="e_fr_energy">  -2186.34839979 </i>
    <i name="e_wo_entrp">  -2186.34839979 </i>
    <i name="e_0_energy">  -2186.34839979 </i>
   </energy>
  </scstep>
  <scstep>
   <time name="dav">  336.86  336.91</time>
   <time name="total">  342.80  342.85</time>
   <energy>
    <i name="e_fr_energy">  -2186.64291720 </i>
    <i name="e_wo_entrp">  -2186.64291720 </i>
    <i name="e_0_energy">  -2186.64291720 </i>
   </energy>
  </scstep>
  <scstep>
   <time name="dav">  323.09  323.12</time>
   <time name="total">  328.96  329.00</time>
   <energy>
    <i name="e_fr_energy">  -1917.19005380 </i>
    <i name="e_wo_entrp">  -1917.19005380 </i>
    <i name="e_0_energy">  -1917.19005380 </i>
   </energy>
  </scstep>
  <scstep>
   <time name="dav">  360.50  360.60</time>
   <time name="total">  366.41  366.51</time>
   <energy>
    <i name="e_fr_energy">  -1915.60621571 </i>
    <i name="e_wo_entrp">  -1915.60621571 </i>
    <i name="e_0_energy">  -1915.60621571 </i>
   </energy>
  </scstep>
  <scstep>
   <time name="dav">  333.73  333.79</time>
   <time name="total">  339.62  339.69</time>
   <energy>
    <i name="e_fr_energy">  -1915.29426205 </i>
    <i name="e_wo_entrp">  -1915.29426205 </i>
    <i name="e_0_energy">  -1915.29426205 </i>
   </energy>
  </scstep>
  <scstep>
   <time name="dav">  326.21  326.25</time>
   <time name="total">  332.10  332.15</time>
   <energy>
    <i name="e_fr_energy">  -1915.53149387 </i>
    <i name="e_wo_entrp">  -1915.53149387 </i>
    <i name="e_0_energy">  -1915.53149387 </i>
   </energy>
  </scstep>
  <scstep>
   <time name="dav">  327.63  327.67</time>
   <time name="total">  333.47  333.54</time>
   <energy>
    <i name="e_fr_energy">  -1915.58674560 </i>
    <i name="e_wo_entrp">  -1915.58674560 </i>
    <i name="e_0_energy">  -1915.58674560 </i>
   </energy>
  </scstep>
  <scstep>
   <time name="dav">  334.94  335.01</time>
   <time name="total">  340.87  340.93</time>
   <energy>
    <i name="e_fr_energy">  -1915.58944057 </i>
    <i name="e_wo_entrp">  -1915.58944057 </i>
    <i name="e_0_energy">  -1915.58944057 </i>
   </energy>
  </scstep>
  <scstep>
   <time name="dav">  336.69  336.73</time>
   <time name="total">  342.51  342.59</time>
   <energy>
    <i name="e_fr_energy">  -1915.58969369 </i>
    <i name="e_wo_entrp">  -1915.58969369 </i>
    <i name="e_0_energy">  -1915.58969369 </i>
   </energy>
  </scstep>
  <scstep>
   <time name="dav">  328.58  328.68</time>
   <time name="total">  334.47  334.57</time>
   <energy>
    <i name="e_fr_energy">  -1915.58982053 </i>
    <i name="e_wo_entrp">  -1915.58982053 </i>
    <i name="e_0_energy">  -1915.58982053 </i>
   </energy>
  </scstep>
  <scstep>
   <time name="dav">  252.63  252.71</time>
   <time name="total">  258.48  258.57</time>
   <energy>
    <i name="e_fr_energy">  -1915.58983371 </i>
    <i name="e_wo_entrp">  -1915.58983371 </i>
    <i name="e_0_energy">  -1915.58983371 </i>
   </energy>
  </scstep>
  <scstep>
   <time name="dav">  238.04  238.08</time>
   <time name="total">  238.12  238.16</time>
   <energy>
    <i name="alphaZ">   1803.06568644 </i>
    <i name="ewald"> -48244.28156214 </i>
    <i name="hartreedc"> -30960.26863966 </i>
    <i name="XCdc">   4088.83053004 </i>
    <i name="pawpsdc"> 243928.67299938 </i>
    <i name="pawaedc">-242861.00044329 </i>
    <i name="eentropy">     -0.00000000 </i>
    <i name="bandstr">  -8045.57160621 </i>
    <i name="atom">  78374.96320226 </i>
    <i name="e_fr_energy">  -1915.58983318 </i>
    <i name="e_wo_entrp">  -1915.58983318 </i>
    <i name="e_0_energy">  -1915.58983318 </i>
   </energy>
  </scstep>
  <structure>
   <crystal>
    <varray name="basis" >
     <v>      14.99190030       0.00000000       0.00000000 </v>
     <v>      -7.49594983      12.98336669       0.00000000 </v>
     <v>       0.00000030       0.00000052      16.37160030 </v>
    </varray>
    <i name="volume">   3186.65568995 </i>
    <varray name="rec_basis" >
     <v>       0.06670268       0.03851081      -0.00000000 </v>
     <v>       0.00000000       0.07702162      -0.00000000 </v>
     <v>       0.00000000       0.00000000       0.06108138 </v>
    </varray>
   </crystal>
   <varray name="positions" >
    <v>       0.06921667       0.13843334       0.00000000 </v>
    <v>       0.26411666       0.06921667       0.11111111 </v>
    <v>       0.19489999       0.26411666       0.22222222 </v>
    <v>       0.26411666       0.19489999       0.00000000 </v>
    <v>       0.06921667       0.26411666       0.11111111 </v>
    <v>       0.13843334       0.06921667       0.22222222 </v>
    <v>       0.06921667       0.13843334       0.33333333 </v>
    <v>       0.26411666       0.06921667       0.44444444 </v>
    <v>       0.19489999       0.26411666       0.55555556 </v>
    <v>       0.26411666       0.19489999       0.33333333 </v>
    <v>       0.06921667       0.26411666       0.44444444 </v>
    <v>       0.13843334       0.06921667       0.55555556 </v>
    <v>       0.06921667       0.13843334       0.66666667 </v>
    <v>       0.26411666       0.06921667       0.77777778 </v>
    <v>       0.19489999       0.26411666       0.88888889 </v>
    <v>       0.26411666       0.19489999       0.66666667 </v>
    <v>       0.06921667       0.26411666       0.77777778 </v>
    <v>       0.13843334       0.06921667       0.88888889 </v>
    <v>       0.06921667       0.47176667       0.00000000 </v>
    <v>       0.26411666       0.40255000       0.11111111 </v>
    <v>       0.19489999       0.59745000       0.22222222 </v>
    <v>       0.26411666       0.52823333       0.00000000 </v>
    <v>       0.06921667       0.59745000       0.11111111 </v>
    <v>       0.13843334       0.40255000       0.22222222 </v>
    <v>       0.06921667       0.47176667       0.33333333 </v>
    <v>       0.26411666       0.40255000       0.44444444 </v>
    <v>       0.19489999       0.59745000       0.55555556 </v>
    <v>       0.26411666       0.52823333       0.33333333 </v>
    <v>       0.06921667       0.59745000       0.44444444 </v>
    <v>       0.13843334       0.40255000       0.55555556 </v>
    <v>       0.06921667       0.47176667       0.66666667 </v>
    <v>       0.26411666       0.40255000       0.77777778 </v>
    <v>       0.19489999       0.59745000       0.88888889 </v>
    <v>       0.26411666       0.52823333       0.66666667 </v>
    <v>       0.06921667       0.59745000       0.77777778 </v>
    <v>       0.13843334       0.40255000       0.88888889 </v>
    <v>       0.06921667       0.80510001       0.00000000 </v>
    <v>       0.26411666       0.73588334       0.11111111 </v>
    <v>       0.19489999       0.93078333       0.22222222 </v>
    <v>       0.26411666       0.86156666       0.00000000 </v>
    <v>       0.06921667       0.93078333       0.11111111 </v>
    <v>       0.13843334       0.73588334       0.22222222 </v>
    <v>       0.06921667       0.80510001       0.33333333 </v>
    <v>       0.26411666       0.73588334       0.44444444 </v>
    <v>       0.19489999       0.93078333       0.55555556 </v>
    <v>       0.26411666       0.86156666       0.33333333 </v>
    <v>       0.06921667       0.93078333       0.44444444 </v>
    <v>       0.13843334       0.73588334       0.55555556 </v>
    <v>       0.06921667       0.80510001       0.66666667 </v>
    <v>       0.26411666       0.73588334       0.77777778 </v>
    <v>       0.19489999       0.93078333       0.88888889 </v>
    <v>       0.26411666       0.86156666       0.66666667 </v>
    <v>       0.06921667       0.93078333       0.77777778 </v>
    <v>       0.13843334       0.73588334       0.88888889 </v>
    <v>       0.40255000       0.13843334       0.00000000 </v>
    <v>       0.59745000       0.06921667       0.11111111 </v>
    <v>       0.52823333       0.26411666       0.22222222 </v>
    <v>       0.59745000       0.19489999       0.00000000 </v>
    <v>       0.40255000       0.26411666       0.11111111 </v>
    <v>       0.47176667       0.06921667       0.22222222 </v>
    <v>       0.40255000       0.13843334       0.33333333 </v>
    <v>       0.59745000       0.06921667       0.44444444 </v>
    <v>       0.52823333       0.26411666       0.55555556 </v>
    <v>       0.59745000       0.19489999       0.33333333 </v>
    <v>       0.40255000       0.26411666       0.44444444 </v>
    <v>       0.47176667       0.06921667       0.55555556 </v>
    <v>       0.40255000       0.13843334       0.66666667 </v>
    <v>       0.59745000       0.06921667       0.77777778 </v>
    <v>       0.52823333       0.26411666       0.88888889 </v>
    <v>       0.59745000       0.19489999       0.66666667 </v>
    <v>       0.40255000       0.26411666       0.77777778 </v>
    <v>       0.47176667       0.06921667       0.88888889 </v>
    <v>       0.40255000       0.47176667       0.00000000 </v>
    <v>       0.59745000       0.40255000       0.11111111 </v>
    <v>       0.52823333       0.59745000       0.22222222 </v>
    <v>       0.59745000       0.52823333       0.00000000 </v>
    <v>       0.40255000       0.59745000       0.11111111 </v>
    <v>       0.47176667       0.40255000       0.22222222 </v>
    <v>       0.40255000       0.47176667       0.33333333 </v>
    <v>       0.59745000       0.40255000       0.44444444 </v>
    <v>       0.52823333       0.59745000       0.55555556 </v>
    <v>       0.59745000       0.52823333       0.33333333 </v>
    <v>       0.40255000       0.59745000       0.44444444 </v>
    <v>       0.47176667       0.40255000       0.55555556 </v>
    <v>       0.40255000       0.47176667       0.66666667 </v>
    <v>       0.59745000       0.40255000       0.77777778 </v>
    <v>       0.52823333       0.59745000       0.88888889 </v>
    <v>       0.59745000       0.52823333       0.66666667 </v>
    <v>       0.40255000       0.59745000       0.77777778 </v>
    <v>       0.47176667       0.40255000       0.88888889 </v>
    <v>       0.40255000       0.80510001       0.00000000 </v>
    <v>       0.59745000       0.73588334       0.11111111 </v>
    <v>       0.52823333       0.93078333       0.22222222 </v>
    <v>       0.59745000       0.86156666       0.00000000 </v>
    <v>       0.40255000       0.93078333       0.11111111 </v>
    <v>       0.47176667       0.73588334       0.22222222 </v>
    <v>       0.40255000       0.80510001       0.33333333 </v>
    <v>       0.59745000       0.73588334       0.44444444 </v>
    <v>       0.52823333       0.93078333       0.55555556 </v>
    <v>       0.59745000       0.86156666       0.33333333 </v>
    <v>       0.40255000       0.93078333       0.44444444 </v>
    <v>       0.47176667       0.73588334       0.55555556 </v>
    <v>       0.40255000       0.80510001       0.66666667 </v>
    <v>       0.59745000       0.73588334       0.77777778 </v>
    <v>       0.52823333       0.93078333       0.88888889 </v>
    <v>       0.59745000       0.86156666       0.66666667 </v>
    <v>       0.40255000       0.93078333       0.77777778 </v>
    <v>       0.47176667       0.73588334       0.88888889 </v>
    <v>       0.73588334       0.13843334       0.00000000 </v>
    <v>       0.93078333       0.06921667       0.11111111 </v>
    <v>       0.86156666       0.26411666       0.22222222 </v>
    <v>       0.93078333       0.19489999       0.00000000 </v>
    <v>       0.73588334       0.26411666       0.11111111 </v>
    <v>       0.80510001       0.06921667       0.22222222 </v>
    <v>       0.73588334       0.13843334       0.33333333 </v>
    <v>       0.93078333       0.06921667       0.44444444 </v>
    <v>       0.86156666       0.26411666       0.55555556 </v>
    <v>       0.93078333       0.19489999       0.33333333 </v>
    <v>       0.73588334       0.26411666       0.44444444 </v>
    <v>       0.80510001       0.06921667       0.55555556 </v>
    <v>       0.73588334       0.13843334       0.66666667 </v>
    <v>       0.93078333       0.06921667       0.77777778 </v>
    <v>       0.86156666       0.26411666       0.88888889 </v>
    <v>       0.93078333       0.19489999       0.66666667 </v>
    <v>       0.73588334       0.26411666       0.77777778 </v>
    <v>       0.80510001       0.06921667       0.88888889 </v>
    <v>       0.73588334       0.47176667       0.00000000 </v>
    <v>       0.93078333       0.40255000       0.11111111 </v>
    <v>       0.86156666       0.59745000       0.22222222 </v>
    <v>       0.93078333       0.52823333       0.00000000 </v>
    <v>       0.73588334       0.59745000       0.11111111 </v>
    <v>       0.80510001       0.40255000       0.22222222 </v>
    <v>       0.73588334       0.47176667       0.33333333 </v>
    <v>       0.93078333       0.40255000       0.44444444 </v>
    <v>       0.86156666       0.59745000       0.55555556 </v>
    <v>       0.93078333       0.52823333       0.33333333 </v>
    <v>       0.73588334       0.59745000       0.44444444 </v>
    <v>       0.80510001       0.40255000       0.55555556 </v>
    <v>       0.73588334       0.47176667       0.66666667 </v>
    <v>       0.93078333       0.40255000       0.77777778 </v>
    <v>       0.86156666       0.59745000       0.88888889 </v>
    <v>       0.93078333       0.52823333       0.66666667 </v>
    <v>       0.73588334       0.59745000       0.77777778 </v>
    <v>       0.80510001       0.40255000       0.88888889 </v>
    <v>       0.73588334       0.80510001       0.00000000 </v>
    <v>       0.93078333       0.73588334       0.11111111 </v>
    <v>       0.86156666       0.93078333       0.22222222 </v>
    <v>       0.93078333       0.86156666       0.00000000 </v>
    <v>       0.73588334       0.93078333       0.11111111 </v>
    <v>       0.80510001       0.73588334       0.22222222 </v>
    <v>       0.73588334       0.80510001       0.33333333 </v>
    <v>       0.93078333       0.73588334       0.44444444 </v>
    <v>       0.86156666       0.93078333       0.55555556 </v>
    <v>       0.93078333       0.86156666       0.33333333 </v>
    <v>       0.73588334       0.93078333       0.44444444 </v>
    <v>       0.80510001       0.73588334       0.55555556 </v>
    <v>       0.73588334       0.80510001       0.66666667 </v>
    <v>       0.93078333       0.73588334       0.77777778 </v>
    <v>       0.86156666       0.93078333       0.88888889 </v>
    <v>       0.93078333       0.86156666       0.66666667 </v>
    <v>       0.73588334       0.93078333       0.77777778 </v>
    <v>       0.80510001       0.73588334       0.88888889 </v>
    <v>       0.16666667       0.00000000       0.16666667 </v>
    <v>       0.16666667       0.16666667       0.27777778 </v>
    <v>       0.00000000       0.16666667       0.05555556 </v>
    <v>       0.16666667       0.00000000       0.50000000 </v>
    <v>       0.16666667       0.16666667       0.61111111 </v>
    <v>       0.00000000       0.16666667       0.38888889 </v>
    <v>       0.16666667       0.00000000       0.83333333 </v>
    <v>       0.16666667       0.16666667       0.94444444 </v>
    <v>       0.00000000       0.16666667       0.72222222 </v>
    <v>       0.16666667       0.33333333       0.16666667 </v>
    <v>       0.16666667       0.50000000       0.27777778 </v>
    <v>       0.00000000       0.50000000       0.05555556 </v>
    <v>       0.16666667       0.33333333       0.50000000 </v>
    <v>       0.16666667       0.50000000       0.61111111 </v>
    <v>       0.00000000       0.50000000       0.38888889 </v>
    <v>       0.16666667       0.33333333       0.83333333 </v>
    <v>       0.16666667       0.50000000       0.94444444 </v>
    <v>       0.00000000       0.50000000       0.72222222 </v>
    <v>       0.16666667       0.66666667       0.16666667 </v>
    <v>       0.16666667       0.83333333       0.27777778 </v>
    <v>       0.00000000       0.83333333       0.05555556 </v>
    <v>       0.16666667       0.66666667       0.50000000 </v>
    <v>       0.16666667       0.83333333       0.61111111 </v>
    <v>       0.00000000       0.83333333       0.38888889 </v>
    <v>       0.16666667       0.66666667       0.83333333 </v>
    <v>       0.16666667       0.83333333       0.94444444 </v>
    <v>       0.00000000       0.83333333       0.72222222 </v>
    <v>       0.50000000       0.00000000       0.16666667 </v>
    <v>       0.50000000       0.16666667       0.27777778 </v>
    <v>       0.33333333       0.16666667       0.05555556 </v>
    <v>       0.50000000       0.00000000       0.50000000 </v>
    <v>       0.50000000       0.16666667       0.61111111 </v>
    <v>       0.33333333       0.16666667       0.38888889 </v>
    <v>       0.50000000       0.00000000       0.83333333 </v>
    <v>       0.50000000       0.16666667       0.94444444 </v>
    <v>       0.33333333       0.16666667       0.72222222 </v>
    <v>       0.50000000       0.33333333       0.16666667 </v>
    <v>       0.50000000       0.50000000       0.27777778 </v>
    <v>       0.33333333       0.50000000       0.05555556 </v>
    <v>       0.50000000       0.33333333       0.50000000 </v>
    <v>       0.50000000       0.50000000       0.61111111 </v>
    <v>       0.33333333       0.50000000       0.38888889 </v>
    <v>       0.50000000       0.33333333       0.83333333 </v>
    <v>       0.50000000       0.50000000       0.94444444 </v>
    <v>       0.33333333       0.50000000       0.72222222 </v>
    <v>       0.50000000       0.66666667       0.16666667 </v>
    <v>       0.50000000       0.83333333       0.27777778 </v>
    <v>       0.33333333       0.83333333       0.05555556 </v>
    <v>       0.50000000       0.66666667       0.50000000 </v>
    <v>       0.50000000       0.83333333       0.61111111 </v>
    <v>       0.33333333       0.83333333       0.38888889 </v>
    <v>       0.50000000       0.66666667       0.83333333 </v>
    <v>       0.50000000       0.83333333       0.94444444 </v>
    <v>       0.33333333       0.83333333       0.72222222 </v>
    <v>       0.83333333       0.00000000       0.16666667 </v>
    <v>       0.83333333       0.16666667       0.27777778 </v>
    <v>       0.66666667       0.16666667       0.05555556 </v>
    <v>       0.83333333       0.00000000       0.50000000 </v>
    <v>       0.83333333       0.16666667       0.61111111 </v>
    <v>       0.66666667       0.16666667       0.38888889 </v>
    <v>       0.83333333       0.00000000       0.83333333 </v>
    <v>       0.83333333       0.16666667       0.94444444 </v>
    <v>       0.66666667       0.16666667       0.72222222 </v>
    <v>       0.83333333       0.33333333       0.16666667 </v>
    <v>       0.83333333       0.50000000       0.27777778 </v>
    <v>       0.66666667       0.50000000       0.05555556 </v>
    <v>       0.83333333       0.33333333       0.50000000 </v>
    <v>       0.83333333       0.50000000       0.61111111 </v>
    <v>       0.66666667       0.50000000       0.38888889 </v>
    <v>       0.83333333       0.33333333       0.83333333 </v>
    <v>       0.83333333       0.50000000       0.94444444 </v>
    <v>       0.66666667       0.50000000       0.72222222 </v>
    <v>       0.83333333       0.66666667       0.16666667 </v>
    <v>       0.83333333       0.83333333       0.27777778 </v>
    <v>       0.66666667       0.83333333       0.05555556 </v>
    <v>       0.83333333       0.66666667       0.50000000 </v>
    <v>       0.83333333       0.83333333       0.61111111 </v>
    <v>       0.66666667       0.83333333       0.38888889 </v>
    <v>       0.83333333       0.66666667       0.83333333 </v>
    <v>       0.83333333       0.83333333       0.94444444 </v>
    <v>       0.66666667       0.83333333       0.72222222 </v>
   </varray>
  </structure>
  <varray name="forces" >
   <v>      -0.00000001      -0.48255520      -0.00000000 </v>
   <v>       0.41790505      -0.24127760      -0.00000000 </v>
   <v>       0.41790506       0.24127760       0.00000000 </v>
   <v>       0.00000001       0.48255520      -0.00000000 </v>
   <v>      -0.41790505       0.24127760      -0.00000000 </v>
   <v>      -0.41790506      -0.24127760      -0.00000000 </v>
   <v>      -0.00000001      -0.48255520      -0.00000000 </v>
   <v>       0.41790505      -0.24127760      -0.00000000 </v>
   <v>       0.41790506       0.24127760      -0.00000000 </v>
   <v>       0.00000001       0.48255520      -0.00000000 </v>
   <v>      -0.41790505       0.24127760      -0.00000000 </v>
   <v>      -0.41790506      -0.24127760      -0.00000000 </v>
   <v>      -0.00000001      -0.48255520      -0.00000000 </v>
   <v>       0.41790505      -0.24127760       0.00000000 </v>
   <v>       0.41790506       0.24127760       0.00000000 </v>
   <v>       0.00000001       0.48255520      -0.00000000 </v>
   <v>      -0.41790505       0.24127760      -0.00000000 </v>
   <v>      -0.41790506      -0.24127760      -0.00000000 </v>
   <v>      -0.00000001      -0.48255520       0.00000000 </v>
   <v>       0.41790505      -0.24127760      -0.00000000 </v>
   <v>       0.41790506       0.24127760      -0.00000000 </v>
   <v>       0.00000001       0.48255520      -0.00000000 </v>
   <v>      -0.41790505       0.24127760      -0.00000000 </v>
   <v>      -0.41790506      -0.24127760      -0.00000000 </v>
   <v>      -0.00000001      -0.48255520      -0.00000000 </v>
   <v>       0.41790505      -0.24127760      -0.00000000 </v>
   <v>       0.41790506       0.24127760      -0.00000000 </v>
   <v>       0.00000001       0.48255520       0.00000000 </v>
   <v>      -0.41790505       0.24127760       0.00000000 </v>
   <v>      -0.41790506      -0.24127760      -0.00000000 </v>
   <v>      -0.00000001      -0.48255520      -0.00000000 </v>
   <v>       0.41790505      -0.24127760       0.00000000 </v>
   <v>       0.41790506       0.24127760       0.00000000 </v>
   <v>       0.00000001       0.48255520      -0.00000000 </v>
   <v>      -0.41790505       0.24127760      -0.00000000 </v>
   <v>      -0.41790506      -0.24127760      -0.00000000 </v>
   <v>      -0.00000001      -0.48255520      -0.00000000 </v>
   <v>       0.41790505      -0.24127760      -0.00000000 </v>
   <v>       0.41790506       0.24127760       0.00000000 </v>
   <v>       0.00000001       0.48255520      -0.00000000 </v>
   <v>      -0.41790505       0.24127760       0.00000000 </v>
   <v>      -0.41790506      -0.24127760      -0.00000000 </v>
   <v>      -0.00000001      -0.48255520      -0.00000000 </v>
   <v>       0.41790505      -0.24127760      -0.00000000 </v>
   <v>       0.41790506       0.24127760       0.00000000 </v>
   <v>       0.00000001       0.48255520      -0.00000000 </v>
   <v>      -0.41790505       0.24127760       0.00000000 </v>
   <v>      -0.41790506      -0.24127760      -0.00000000 </v>
   <v>      -0.00000001      -0.48255520       0.00000000 </v>
   <v>       0.41790505      -0.24127760      -0.00000000 </v>
   <v>       0.41790506       0.24127760       0.00000000 </v>
   <v>       0.00000001       0.48255520      -0.00000000 </v>
   <v>      -0.41790505       0.24127760      -0.00000000 </v>
   <v>      -0.41790506      -0.24127760      -0.00000000 </v>
   <v>      -0.00000001      -0.48255520      -0.00000000 </v>
   <v>       0.41790505      -0.24127760      -0.00000000 </v>
   <v>       0.41790506       0.24127760       0.00000000 </v>
   <v>       0.00000001       0.48255520      -0.00000000 </v>
   <v>      -0.41790505       0.24127760      -0.00000000 </v>
   <v>      -0.41790506      -0.24127760      -0.00000000 </v>
   <v>      -0.00000001      -0.48255520       0.00000000 </v>
   <v>       0.41790505      -0.24127760      -0.00000000 </v>
   <v>       0.41790506       0.24127760      -0.00000000 </v>
   <v>       0.00000001       0.48255520      -0.00000000 </v>
   <v>      -0.41790505       0.24127760      -0.00000000 </v>
   <v>      -0.41790506      -0.24127760      -0.00000000 </v>
   <v>      -0.00000001      -0.48255520      -0.00000000 </v>
   <v>       0.41790505      -0.24127760       0.00000000 </v>
   <v>       0.41790506       0.24127760       0.00000000 </v>
   <v>       0.00000001       0.48255520      -0.00000000 </v>
   <v>      -0.41790505       0.24127760      -0.00000000 </v>
   <v>      -0.41790506      -0.24127760      -0.00000000 </v>
   <v>      -0.00000001      -0.48255520      -0.00000000 </v>
   <v>       0.41790505      -0.24127760      -0.00000000 </v>
   <v>       0.41790506       0.24127760       0.00000000 </v>
   <v>       0.00000001       0.48255520      -0.00000000 </v>
   <v>      -0.41790505       0.24127760      -0.00000000 </v>
   <v>      -0.41790506      -0.24127760       0.00000000 </v>
   <v>      -0.00000001      -0.48255520       0.00000000 </v>
   <v>       0.41790505      -0.24127760      -0.00000000 </v>
   <v>       0.41790506       0.24127760      -0.00000000 </v>
   <v>       0.00000001       0.48255520       0.00000000 </v>
   <v>      -0.41790505       0.24127760      -0.00000000 </v>
   <v>      -0.41790506      -0.24127760      -0.00000000 </v>
   <v>      -0.00000001      -0.48255520      -0.00000000 </v>
   <v>       0.41790505      -0.24127760       0.00000000 </v>
   <v>       0.41790506       0.24127760       0.00000000 </v>
   <v>       0.00000001       0.48255520      -0.00000000 </v>
   <v>      -0.41790505       0.24127760      -0.00000000 </v>
   <v>      -0.41790506      -0.24127760      -0.00000000 </v>
   <v>      -0.00000001      -0.48255520      -0.00000000 </v>
   <v>       0.41790505      -0.24127760      -0.00000000 </v>
   <v>       0.41790506       0.24127760       0.00000000 </v>
   <v>       0.00000001       0.48255520      -0.00000000 </v>
   <v>      -0.41790505       0.24127760       0.00000000 </v>
   <v>      -0.41790506      -0.24127760      -0.00000000 </v>
   <v>      -0.00000001      -0.48255520       0.00000000 </v>
   <v>       0.41790505      -0.24127760      -0.00000000 </v>
   <v>       0.41790506       0.24127760       0.00000000 </v>
   <v>       0.00000001       0.48255520       0.00000000 </v>
   <v>      -0.41790505       0.24127760      -0.00000000 </v>
   <v>      -0.41790506      -0.24127760      -0.00000000 </v>
   <v>      -0.00000001      -0.48255520       0.00000000 </v>
   <v>       0.41790505      -0.24127760      -0.00000000 </v>
   <v>       0.41790506       0.24127760      -0.00000000 </v>
   <v>       0.00000001       0.48255520      -0.00000000 </v>
   <v>      -0.41790505       0.24127760      -0.00000000 </v>
   <v>      -0.41790506      -0.24127760      -0.00000000 </v>
   <v>      -0.00000001      -0.48255520      -0.00000000 </v>
   <v>       0.41790505      -0.24127760      -0.00000000 </v>
   <v>       0.41790506       0.24127760       0.00000000 </v>
   <v>       0.00000001       0.48255520       0.00000000 </v>
   <v>      -0.41790505       0.24127760      -0.00000000 </v>
   <v>      -0.41790506      -0.24127760      -0.00000000 </v>
   <v>      -0.00000001      -0.48255520      -0.00000000 </v>
   <v>       0.41790505      -0.24127760      -0.00000000 </v>
   <v>       0.41790506       0.24127760      -0.00000000 </v>
   <v>       0.00000001       0.48255520       0.00000000 </v>
   <v>      -0.41790505       0.24127760      -0.00000000 </v>
   <v>      -0.41790506      -0.24127760      -0.00000000 </v>
   <v>      -0.00000001      -0.48255520       0.00000000 </v>
[...]
       <r>     3.9782     0.0000  1296.0000 </r>
       <r>     4.0887     0.0000  1296.0000 </r>
       <r>     4.1992     0.0000  1296.0000 </r>
       <r>     4.3097     0.0000  1296.0000 </r>
       <r>     4.4202     0.0000  1296.0000 </r>
       <r>     4.5307     0.0000  1296.0000 </r>
       <r>     4.6412     0.0000  1296.0000 </r>
       <r>     4.7517     0.0000  1296.0000 </r>
       <r>     4.8622     0.0000  1296.0000 </r>
       <r>     4.9727     0.0000  1296.0000 </r>
       <r>     5.0832     0.0000  1296.0000 </r>
       <r>     5.1937     0.0000  1296.0000 </r>
       <r>     5.3042     0.0000  1296.0000 </r>
       <r>     5.4147     0.0000  1296.0000 </r>
       <r>     5.5252     0.0000  1296.0000 </r>
       <r>     5.6357     0.0000  1296.0000 </r>
       <r>     5.7462     0.0000  1296.0000 </r>
       <r>     5.8567     0.0000  1296.0000 </r>
       <r>     5.9672     0.0000  1296.0000 </r>
       <r>     6.0777     0.0000  1296.0000 </r>
       <r>     6.1882     0.0000  1296.0000 </r>
       <r>     6.2987     0.0000  1296.0000 </r>
       <r>     6.4092     0.0000  1296.0000 </r>
       <r>     6.5197     0.0000  1296.0000 </r>
       <r>     6.6302     0.0001  1296.0000 </r>
       <r>     6.7407     0.1491  1296.0165 </r>
       <r>     6.8512     1.8664  1296.2227 </r>
       <r>     6.9617     3.6416  1296.6251 </r>
       <r>     7.0722     4.9295  1297.1698 </r>
       <r>     7.1827     6.0812  1297.8417 </r>
       <r>     7.2932     7.2212  1298.6397 </r>
       <r>     7.4037     8.3063  1299.5575 </r>
       <r>     7.5142     9.2927  1300.5843 </r>
       <r>     7.6247    10.4369  1301.7376 </r>
       <r>     7.7351    11.7694  1303.0381 </r>
       <r>     7.8456    12.7413  1304.4460 </r>
       <r>     7.9561    13.9131  1305.9833 </r>
       <r>     8.0666    15.6008  1307.7072 </r>
       <r>     8.1771    16.5566  1309.5366 </r>
       <r>     8.2876    18.1513  1311.5423 </r>
       <r>     8.3981    20.1807  1313.7722 </r>
       <r>     8.5086    21.3811  1316.1348 </r>
       <r>     8.6191    24.1227  1318.8003 </r>
       <r>     8.7296    27.0686  1321.7913 </r>
       <r>     8.8401    30.7926  1325.1938 </r>
       <r>     8.9506    33.7839  1328.9268 </r>
       <r>     9.0611    33.4406  1332.6219 </r>
       <r>     9.1716    32.4108  1336.2032 </r>
       <r>     9.2821    31.7971  1339.7167 </r>
       <r>     9.3926    31.1638  1343.1603 </r>
       <r>     9.5031    31.7352  1346.6669 </r>
       <r>     9.6136    35.3676  1350.5749 </r>
       <r>     9.7241    45.6794  1355.6224 </r>
       <r>     9.8346    76.8106  1364.1098 </r>
       <r>     9.9451   125.2215  1377.9465 </r>
       <r>    10.0556   164.4188  1396.1143 </r>
       <r>    10.1661   137.3449  1411.2906 </r>
       <r>    10.2766   121.4783  1424.7137 </r>
       <r>    10.3871   131.7428  1439.2709 </r>
       <r>    10.4976   175.3838  1458.6504 </r>
       <r>    10.6081   252.8344  1486.5880 </r>
       <r>    10.7186   203.6628  1509.0922 </r>
       <r>    10.8291   156.5215  1526.3874 </r>
       <r>    10.9396   108.8606  1538.4163 </r>
       <r>    11.0501   107.0967  1550.2502 </r>
       <r>    11.1606    99.1830  1561.2097 </r>
       <r>    11.2711    54.5585  1567.2382 </r>
       <r>    11.3816     6.8807  1567.9985 </r>
       <r>    11.4921     0.0132  1568.0000 </r>
       <r>    11.6026     0.0000  1568.0000 </r>
       <r>    11.7131     0.0000  1568.0000 </r>
       <r>    11.8236     0.0000  1568.0000 </r>
       <r>    11.9341     0.0000  1568.0000 </r>
       <r>    12.0446     0.0000  1568.0000 </r>
       <r>    12.1550     0.0000  1568.0000 </r>
       <r>    12.2655     0.0000  1568.0000 </r>
       <r>    12.3760     0.0000  1568.0000 </r>
       <r>    12.4865     0.0000  1568.0000 </r>
       <r>    12.5970     0.0000  1568.0000 </r>
       <r>    12.7075     0.0000  1568.0000 </r>
       <r>    12.8180     0.0000  1568.0000 </r>
      </set>
     </set>
    </array>
   </total>
  </dos>
 </calculation>
 <structure name="finalpos" >
  <crystal>
   <varray name="basis" >
    <v>      14.99190030       0.00000000       0.00000000 </v>
    <v>      -7.49594983      12.98336669       0.00000000 </v>
    <v>       0.00000030       0.00000052      16.37160030 </v>
   </varray>
   <i name="volume">   3186.65568995 </i>
   <varray name="rec_basis" >
    <v>       0.06670268       0.03851081      -0.00000000 </v>
    <v>       0.00000000       0.07702162      -0.00000000 </v>
    <v>       0.00000000       0.00000000       0.06108138 </v>
   </varray>
  </crystal>
  <varray name="positions" >
   <v>       0.06921667       0.13843334       0.00000000 </v>
   <v>       0.26411666       0.06921667       0.11111111 </v>
   <v>       0.19489999       0.26411666       0.22222222 </v>
   <v>       0.26411666       0.19489999       0.00000000 </v>
   <v>       0.06921667       0.26411666       0.11111111 </v>
   <v>       0.13843334       0.06921667       0.22222222 </v>
   <v>       0.06921667       0.13843334       0.33333333 </v>
   <v>       0.26411666       0.06921667       0.44444444 </v>
   <v>       0.19489999       0.26411666       0.55555556 </v>
   <v>       0.26411666       0.19489999       0.33333333 </v>
   <v>       0.06921667       0.26411666       0.44444444 </v>
   <v>       0.13843334       0.06921667       0.55555556 </v>
   <v>       0.06921667       0.13843334       0.66666667 </v>
   <v>       0.26411666       0.06921667       0.77777778 </v>
   <v>       0.19489999       0.26411666       0.88888889 </v>
   <v>       0.26411666       0.19489999       0.66666667 </v>
   <v>       0.06921667       0.26411666       0.77777778 </v>
   <v>       0.13843334       0.06921667       0.88888889 </v>
   <v>       0.06921667       0.47176667       0.00000000 </v>
   <v>       0.26411666       0.40255000       0.11111111 </v>
   <v>       0.19489999       0.59745000       0.22222222 </v>
   <v>       0.26411666       0.52823333       0.00000000 </v>
   <v>       0.06921667       0.59745000       0.11111111 </v>
   <v>       0.13843334       0.40255000       0.22222222 </v>
   <v>       0.06921667       0.47176667       0.33333333 </v>
   <v>       0.26411666       0.40255000       0.44444444 </v>
   <v>       0.19489999       0.59745000       0.55555556 </v>
   <v>       0.26411666       0.52823333       0.33333333 </v>
   <v>       0.06921667       0.59745000       0.44444444 </v>
   <v>       0.13843334       0.40255000       0.55555556 </v>
   <v>       0.06921667       0.47176667       0.66666667 </v>
   <v>       0.26411666       0.40255000       0.77777778 </v>
   <v>       0.19489999       0.59745000       0.88888889 </v>
   <v>       0.26411666       0.52823333       0.66666667 </v>
   <v>       0.06921667       0.59745000       0.77777778 </v>
   <v>       0.13843334       0.40255000       0.88888889 </v>
   <v>       0.06921667       0.80510001       0.00000000 </v>
   <v>       0.26411666       0.73588334       0.11111111 </v>
   <v>       0.19489999       0.93078333       0.22222222 </v>
   <v>       0.26411666       0.86156666       0.00000000 </v>
   <v>       0.06921667       0.93078333       0.11111111 </v>
   <v>       0.13843334       0.73588334       0.22222222 </v>
   <v>       0.06921667       0.80510001       0.33333333 </v>
   <v>       0.26411666       0.73588334       0.44444444 </v>
   <v>       0.19489999       0.93078333       0.55555556 </v>
   <v>       0.26411666       0.86156666       0.33333333 </v>
   <v>       0.06921667       0.93078333       0.44444444 </v>
   <v>       0.13843334       0.73588334       0.55555556 </v>
   <v>       0.06921667       0.80510001       0.66666667 </v>
   <v>       0.26411666       0.73588334       0.77777778 </v>
   <v>       0.19489999       0.93078333       0.88888889 </v>
   <v>       0.26411666       0.86156666       0.66666667 </v>
   <v>       0.06921667       0.93078333       0.77777778 </v>
   <v>       0.13843334       0.73588334       0.88888889 </v>
   <v>       0.40255000       0.13843334       0.00000000 </v>
   <v>       0.59745000       0.06921667       0.11111111 </v>
   <v>       0.52823333       0.26411666       0.22222222 </v>
   <v>       0.59745000       0.19489999       0.00000000 </v>
   <v>       0.40255000       0.26411666       0.11111111 </v>
   <v>       0.47176667       0.06921667       0.22222222 </v>
   <v>       0.40255000       0.13843334       0.33333333 </v>
   <v>       0.59745000       0.06921667       0.44444444 </v>
   <v>       0.52823333       0.26411666       0.55555556 </v>
   <v>       0.59745000       0.19489999       0.33333333 </v>
   <v>       0.40255000       0.26411666       0.44444444 </v>
   <v>       0.47176667       0.06921667       0.55555556 </v>
   <v>       0.40255000       0.13843334       0.66666667 </v>
   <v>       0.59745000       0.06921667       0.77777778 </v>
   <v>       0.52823333       0.26411666       0.88888889 </v>
   <v>       0.59745000       0.19489999       0.66666667 </v>
   <v>       0.40255000       0.26411666       0.77777778 </v>
   <v>       0.47176667       0.06921667       0.88888889 </v>
   <v>       0.40255000       0.47176667       0.00000000 </v>
   <v>       0.59745000       0.40255000       0.11111111 </v>
   <v>       0.52823333       0.59745000       0.22222222 </v>
   <v>       0.59745000       0.52823333       0.00000000 </v>
   <v>       0.40255000       0.59745000       0.11111111 </v>
   <v>       0.47176667       0.40255000       0.22222222 </v>
   <v>       0.40255000       0.47176667       0.33333333 </v>
   <v>       0.59745000       0.40255000       0.44444444 </v>
   <v>       0.52823333       0.59745000       0.55555556 </v>
   <v>       0.59745000       0.52823333       0.33333333 </v>
   <v>       0.40255000       0.59745000       0.44444444 </v>
   <v>       0.47176667       0.40255000       0.55555556 </v>
   <v>       0.40255000       0.47176667       0.66666667 </v>
   <v>       0.59745000       0.40255000       0.77777778 </v>
   <v>       0.52823333       0.59745000       0.88888889 </v>
   <v>       0.59745000       0.52823333       0.66666667 </v>
   <v>       0.40255000       0.59745000       0.77777778 </v>
   <v>       0.47176667       0.40255000       0.88888889 </v>
   <v>       0.40255000       0.80510001       0.00000000 </v>
   <v>       0.59745000       0.73588334       0.11111111 </v>
   <v>       0.52823333       0.93078333       0.22222222 </v>
   <v>       0.59745000       0.86156666       0.00000000 </v>
   <v>       0.40255000       0.93078333       0.11111111 </v>
   <v>       0.47176667       0.73588334       0.22222222 </v>
   <v>       0.40255000       0.80510001       0.33333333 </v>
   <v>       0.59745000       0.73588334       0.44444444 </v>
   <v>       0.52823333       0.93078333       0.55555556 </v>
   <v>       0.59745000       0.86156666       0.33333333 </v>
   <v>       0.40255000       0.93078333       0.44444444 </v>
   <v>       0.47176667       0.73588334       0.55555556 </v>
   <v>       0.40255000       0.80510001       0.66666667 </v>
   <v>       0.59745000       0.73588334       0.77777778 </v>
   <v>       0.52823333       0.93078333       0.88888889 </v>
   <v>       0.59745000       0.86156666       0.66666667 </v>
   <v>       0.40255000       0.93078333       0.77777778 </v>
   <v>       0.47176667       0.73588334       0.88888889 </v>
   <v>       0.73588334       0.13843334       0.00000000 </v>
   <v>       0.93078333       0.06921667       0.11111111 </v>
   <v>       0.86156666       0.26411666       0.22222222 </v>
   <v>       0.93078333       0.19489999       0.00000000 </v>
   <v>       0.73588334       0.26411666       0.11111111 </v>
   <v>       0.80510001       0.06921667       0.22222222 </v>
   <v>       0.73588334       0.13843334       0.33333333 </v>
   <v>       0.93078333       0.06921667       0.44444444 </v>
   <v>       0.86156666       0.26411666       0.55555556 </v>
   <v>       0.93078333       0.19489999       0.33333333 </v>
   <v>       0.73588334       0.26411666       0.44444444 </v>
   <v>       0.80510001       0.06921667       0.55555556 </v>
   <v>       0.73588334       0.13843334       0.66666667 </v>
   <v>       0.93078333       0.06921667       0.77777778 </v>
   <v>       0.86156666       0.26411666       0.88888889 </v>
   <v>       0.93078333       0.19489999       0.66666667 </v>
   <v>       0.73588334       0.26411666       0.77777778 </v>
   <v>       0.80510001       0.06921667       0.88888889 </v>
   <v>       0.73588334       0.47176667       0.00000000 </v>
   <v>       0.93078333       0.40255000       0.11111111 </v>
   <v>       0.86156666       0.59745000       0.22222222 </v>
   <v>       0.93078333       0.52823333       0.00000000 </v>
   <v>       0.73588334       0.59745000       0.11111111 </v>
   <v>       0.80510001       0.40255000       0.22222222 </v>
   <v>       0.73588334       0.47176667       0.33333333 </v>
   <v>       0.93078333       0.40255000       0.44444444 </v>
   <v>       0.86156666       0.59745000       0.55555556 </v>
   <v>       0.93078333       0.52823333       0.33333333 </v>
   <v>       0.73588334       0.59745000       0.44444444 </v>
   <v>       0.80510001       0.40255000       0.55555556 </v>
   <v>       0.73588334       0.47176667       0.66666667 </v>
   <v>       0.93078333       0.40255000       0.77777778 </v>
   <v>       0.86156666       0.59745000       0.88888889 </v>
   <v>       0.93078333       0.52823333       0.66666667 </v>
   <v>       0.73588334       0.59745000       0.77777778 </v>
   <v>       0.80510001       0.40255000       0.88888889 </v>
   <v>       0.73588334       0.80510001       0.00000000 </v>
   <v>       0.93078333       0.73588334       0.11111111 </v>
   <v>       0.86156666       0.93078333       0.22222222 </v>
   <v>       0.93078333       0.86156666       0.00000000 </v>
   <v>       0.73588334       0.93078333       0.11111111 </v>
   <v>       0.80510001       0.73588334       0.22222222 </v>
   <v>       0.73588334       0.80510001       0.33333333 </v>
   <v>       0.93078333       0.73588334       0.44444444 </v>
   <v>       0.86156666       0.93078333       0.55555556 </v>
   <v>       0.93078333       0.86156666       0.33333333 </v>
   <v>       0.73588334       0.93078333       0.44444444 </v>
   <v>       0.80510001       0.73588334       0.55555556 </v>
   <v>       0.73588334       0.80510001       0.66666667 </v>
   <v>       0.93078333       0.73588334       0.77777778 </v>
   <v>       0.86156666       0.93078333       0.88888889 </v>
   <v>       0.93078333       0.86156666       0.66666667 </v>
   <v>       0.73588334       0.93078333       0.77777778 </v>
   <v>       0.80510001       0.73588334       0.88888889 </v>
   <v>       0.16666667       0.00000000       0.16666667 </v>
   <v>       0.16666667       0.16666667       0.27777778 </v>
   <v>       0.00000000       0.16666667       0.05555556 </v>
   <v>       0.16666667       0.00000000       0.50000000 </v>
   <v>       0.16666667       0.16666667       0.61111111 </v>
   <v>       0.00000000       0.16666667       0.38888889 </v>
   <v>       0.16666667       0.00000000       0.83333333 </v>
   <v>       0.16666667       0.16666667       0.94444444 </v>
   <v>       0.00000000       0.16666667       0.72222222 </v>
   <v>       0.16666667       0.33333333       0.16666667 </v>
   <v>       0.16666667       0.50000000       0.27777778 </v>
   <v>       0.00000000       0.50000000       0.05555556 </v>
   <v>       0.16666667       0.33333333       0.50000000 </v>
   <v>       0.16666667       0.50000000       0.61111111 </v>
   <v>       0.00000000       0.50000000       0.38888889 </v>
   <v>       0.16666667       0.33333333       0.83333333 </v>
   <v>       0.16666667       0.50000000       0.94444444 </v>
   <v>       0.00000000       0.50000000       0.72222222 </v>
   <v>       0.16666667       0.66666667       0.16666667 </v>
   <v>       0.16666667       0.83333333       0.27777778 </v>
   <v>       0.00000000       0.83333333       0.05555556 </v>
   <v>       0.16666667       0.66666667       0.50000000 </v>
   <v>       0.16666667       0.83333333       0.61111111 </v>
   <v>       0.00000000       0.83333333       0.38888889 </v>
   <v>       0.16666667       0.66666667       0.83333333 </v>
   <v>       0.16666667       0.83333333       0.94444444 </v>
   <v>       0.00000000       0.83333333       0.72222222 </v>
   <v>       0.50000000       0.00000000       0.16666667 </v>
   <v>       0.50000000       0.16666667       0.27777778 </v>
   <v>       0.33333333       0.16666667       0.05555556 </v>
   <v>       0.50000000       0.00000000       0.50000000 </v>
   <v>       0.50000000       0.16666667       0.61111111 </v>
   <v>       0.33333333       0.16666667       0.38888889 </v>
   <v>       0.50000000       0.00000000       0.83333333 </v>
   <v>       0.50000000       0.16666667       0.94444444 </v>
   <v>       0.33333333       0.16666667       0.72222222 </v>
   <v>       0.50000000       0.33333333       0.16666667 </v>
   <v>       0.50000000       0.50000000       0.27777778 </v>
   <v>       0.33333333       0.50000000       0.05555556 </v>
   <v>       0.50000000       0.33333333       0.50000000 </v>
   <v>       0.50000000       0.50000000       0.61111111 </v>
   <v>       0.33333333       0.50000000       0.38888889 </v>
   <v>       0.50000000       0.33333333       0.83333333 </v>
   <v>       0.50000000       0.50000000       0.94444444 </v>
   <v>       0.33333333       0.50000000       0.72222222 </v>
   <v>       0.50000000       0.66666667       0.16666667 </v>
   <v>       0.50000000       0.83333333       0.27777778 </v>
   <v>       0.33333333       0.83333333       0.05555556 </v>
   <v>       0.50000000       0.66666667       0.50000000 </v>
   <v>       0.50000000       0.83333333       0.61111111 </v>
   <v>       0.33333333       0.83333333       0.38888889 </v>
   <v>       0.50000000       0.66666667       0.83333333 </v>
   <v>       0.50000000       0.83333333       0.94444444 </v>
   <v>       0.33333333       0.83333333       0.72222222 </v>
   <v>       0.83333333       0.00000000       0.16666667 </v>
   <v>       0.83333333       0.16666667       0.27777778 </v>
   <v>       0.66666667       0.16666667       0.05555556 </v>
   <v>       0.83333333       0.00000000       0.50000000 </v>
   <v>       0.83333333       0.16666667       0.61111111 </v>
   <v>       0.66666667       0.16666667       0.38888889 </v>
   <v>       0.83333333       0.00000000       0.83333333 </v>
   <v>       0.83333333       0.16666667       0.94444444 </v>
   <v>       0.66666667       0.16666667       0.72222222 </v>
   <v>       0.83333333       0.33333333       0.16666667 </v>
   <v>       0.83333333       0.50000000       0.27777778 </v>
   <v>       0.66666667       0.50000000       0.05555556 </v>
   <v>       0.83333333       0.33333333       0.50000000 </v>
   <v>       0.83333333       0.50000000       0.61111111 </v>
   <v>       0.66666667       0.50000000       0.38888889 </v>
   <v>       0.83333333       0.33333333       0.83333333 </v>
   <v>       0.83333333       0.50000000       0.94444444 </v>
   <v>       0.66666667       0.50000000       0.72222222 </v>
   <v>       0.83333333       0.66666667       0.16666667 </v>
   <v>       0.83333333       0.83333333       0.27777778 </v>
   <v>       0.66666667       0.83333333       0.05555556 </v>
   <v>       0.83333333       0.66666667       0.50000000 </v>
   <v>       0.83333333       0.83333333       0.61111111 </v>
   <v>       0.66666667       0.83333333       0.38888889 </v>
   <v>       0.83333333       0.66666667       0.83333333 </v>
   <v>       0.83333333       0.83333333       0.94444444 </v>
   <v>       0.66666667       0.83333333       0.72222222 </v>
  </varray>
 </structure>
</modeling>
