 243 243   0   0
  0.1311381E+02  0.1499190E-08  0.1499190E-08  0.1637160E-08  0.5000000E-15
  1.000000000000000E-004
  CAR 
 (Si O2)81  (P1) ~ Ciellie_MCM41 (MD     
     12.80348096    -20.33053394  301      1.10993487      1.00000000
    -20.331  0.0000E+00  0.0000E+00
    -20.220  0.0000E+00  0.0000E+00
    -20.110  0.0000E+00  0.0000E+00
    -19.999  0.0000E+00  0.0000E+00
    -19.889  0.0000E+00  0.0000E+00
    -19.778  0.0000E+00  0.0000E+00
    -19.668  0.0000E+00  0.0000E+00
    -19.557  0.0000E+00  0.0000E+00
    -19.447  0.0000E+00  0.0000E+00
    -19.337  0.0000E+00  0.0000E+00
    -19.226  0.0000E+00  0.0000E+00
    -19.116  0.3141E-16  0.3469E-17
    -19.005  0.6949E-07  0.7674E-08
    -18.895  0.2674E-01  0.2954E-02
    -18.784  0.6413E+01  0.7113E+00
    -18.674  0.3178E+02  0.4222E+01
    -18.563  0.5383E+02  0.1017E+02
    -18.453  0.7994E+02  0.1900E+02
    -18.342  0.1558E+03  0.3620E+02
    -18.232  0.1597E+03  0.5383E+02
    -18.122  0.3194E+02  0.5736E+02
    -18.011  0.4093E+02  0.6188E+02
    -17.901  0.1113E+03  0.7417E+02
    -17.790  0.1844E+03  0.9454E+02
    -17.680  0.6563E+02  0.1018E+03
    -17.569  0.2987E+02  0.1051E+03
    -17.459  0.2780E+02  0.1082E+03
    -17.348  0.6185E+02  0.1150E+03
    -17.238  0.1987E+03  0.1369E+03
    -17.128  0.9512E+02  0.1474E+03
    -17.017  0.5133E+02  0.1531E+03
    -16.907  0.3527E+02  0.1570E+03
    -16.796  0.2533E+02  0.1598E+03
    -16.686  0.1991E+03  0.1818E+03
    -16.575  0.1234E+04  0.3181E+03
    -16.465  0.5315E+02  0.3240E+03
    -16.354  0.1589E-02  0.3240E+03
    -16.244  0.1025E-10  0.3240E+03
    -16.134  0.0000E+00  0.3240E+03
    -16.023  0.0000E+00  0.3240E+03
    -15.913  0.0000E+00  0.3240E+03
    -15.802  0.0000E+00  0.3240E+03
    -15.692  0.0000E+00  0.3240E+03
    -15.581  0.0000E+00  0.3240E+03
    -15.471  0.0000E+00  0.3240E+03
    -15.360  0.0000E+00  0.3240E+03
    -15.250  0.0000E+00  0.3240E+03
    -15.140  0.0000E+00  0.3240E+03
    -15.029  0.0000E+00  0.3240E+03
    -14.919  0.0000E+00  0.3240E+03
    -14.808  0.0000E+00  0.3240E+03
    -14.698  0.0000E+00  0.3240E+03
    -14.587  0.0000E+00  0.3240E+03
    -14.477  0.0000E+00  0.3240E+03
    -14.366  0.0000E+00  0.3240E+03
    -14.256  0.0000E+00  0.3240E+03
    -14.146  0.0000E+00  0.3240E+03
    -14.035  0.0000E+00  0.3240E+03
    -13.925  0.0000E+00  0.3240E+03
    -13.814  0.0000E+00  0.3240E+03
    -13.704  0.0000E+00  0.3240E+03
    -13.593  0.0000E+00  0.3240E+03
    -13.483  0.0000E+00  0.3240E+03
    -13.372  0.0000E+00  0.3240E+03
    -13.262  0.0000E+00  0.3240E+03
    -13.151  0.0000E+00  0.3240E+03
    -13.041  0.0000E+00  0.3240E+03
    -12.931  0.0000E+00  0.3240E+03
    -12.820  0.0000E+00  0.3240E+03
    -12.710  0.0000E+00  0.3240E+03
    -12.599  0.0000E+00  0.3240E+03
    -12.489  0.0000E+00  0.3240E+03
    -12.378  0.0000E+00  0.3240E+03
    -12.268  0.0000E+00  0.3240E+03
    -12.157  0.0000E+00  0.3240E+03
    -12.047  0.0000E+00  0.3240E+03
    -11.937  0.0000E+00  0.3240E+03
    -11.826  0.0000E+00  0.3240E+03
    -11.716  0.0000E+00  0.3240E+03
    -11.605  0.0000E+00  0.3240E+03
    -11.495  0.0000E+00  0.3240E+03
    -11.384  0.0000E+00  0.3240E+03
    -11.274  0.0000E+00  0.3240E+03
    -11.163  0.0000E+00  0.3240E+03
    -11.053  0.0000E+00  0.3240E+03
    -10.943  0.0000E+00  0.3240E+03
    -10.832  0.0000E+00  0.3240E+03
    -10.722  0.0000E+00  0.3240E+03
    -10.611  0.0000E+00  0.3240E+03
    -10.501  0.0000E+00  0.3240E+03
    -10.390  0.0000E+00  0.3240E+03
    -10.280  0.0000E+00  0.3240E+03
    -10.169  0.0000E+00  0.3240E+03
    -10.059  0.0000E+00  0.3240E+03
     -9.949  0.0000E+00  0.3240E+03
     -9.838  0.0000E+00  0.3240E+03
     -9.728  0.0000E+00  0.3240E+03
     -9.617  0.0000E+00  0.3240E+03
     -9.507  0.0000E+00  0.3240E+03
     -9.396  0.0000E+00  0.3240E+03
     -9.286  0.4398E-12  0.3240E+03
     -9.175  0.1703E-04  0.3240E+03
     -9.065  0.1004E+00  0.3240E+03
     -8.955  0.3275E+01  0.3244E+03
     -8.844  0.7193E+01  0.3252E+03
     -8.734  0.1110E+02  0.3264E+03
     -8.623  0.1484E+02  0.3280E+03
     -8.513  0.1914E+02  0.3301E+03
     -8.402  0.1725E+02  0.3321E+03
     -8.292  0.3193E+02  0.3356E+03
     -8.181  0.2906E+02  0.3388E+03
     -8.071  0.5473E+02  0.3448E+03
     -7.961  0.1541E+03  0.3619E+03
     -7.850  0.8167E+02  0.3709E+03
     -7.740  0.4314E+02  0.3756E+03
     -7.629  0.1411E+02  0.3772E+03
     -7.519  0.1057E+02  0.3784E+03
     -7.408  0.1387E+02  0.3799E+03
     -7.298  0.1252E+02  0.3813E+03
     -7.187  0.1387E+02  0.3828E+03
     -7.077  0.2045E+02  0.3851E+03
     -6.966  0.4679E+02  0.3902E+03
     -6.856  0.5731E+02  0.3966E+03
     -6.746  0.1255E+03  0.4104E+03
     -6.635  0.6903E+02  0.4181E+03
     -6.525  0.3978E+02  0.4224E+03
     -6.414  0.3220E+02  0.4260E+03
     -6.304  0.1892E+02  0.4281E+03
     -6.193  0.1390E+02  0.4296E+03
     -6.083  0.3380E+02  0.4334E+03
     -5.972  0.5523E+02  0.4395E+03
     -5.862  0.6798E+02  0.4470E+03
     -5.752  0.5892E+02  0.4535E+03
     -5.641  0.5626E+02  0.4597E+03
     -5.531  0.4950E+02  0.4652E+03
     -5.420  0.4326E+02  0.4699E+03
     -5.310  0.4637E+02  0.4751E+03
     -5.199  0.3454E+02  0.4789E+03
     -5.089  0.5526E+02  0.4850E+03
     -4.978  0.1830E+03  0.5052E+03
     -4.868  0.2311E+03  0.5307E+03
     -4.758  0.1614E+03  0.5485E+03
     -4.647  0.1349E+03  0.5634E+03
     -4.537  0.1383E+03  0.5787E+03
     -4.426  0.1274E+03  0.5928E+03
     -4.316  0.9216E+02  0.6030E+03
     -4.205  0.1527E+03  0.6198E+03
     -4.095  0.1164E+03  0.6327E+03
     -3.984  0.8640E+02  0.6422E+03
     -3.874  0.4787E+02  0.6475E+03
     -3.764  0.4438E+01  0.6480E+03
     -3.653  0.4834E-02  0.6480E+03
     -3.543  0.3309E-08  0.6480E+03
     -3.432  0.0000E+00  0.6480E+03
     -3.322  0.0000E+00  0.6480E+03
     -3.211  0.0000E+00  0.6480E+03
     -3.101  0.0000E+00  0.6480E+03
     -2.990  0.0000E+00  0.6480E+03
     -2.880  0.0000E+00  0.6480E+03
     -2.770  0.5939E-08  0.6480E+03
     -2.659  0.2136E-01  0.6480E+03
     -2.549  0.2807E+02  0.6511E+03
     -2.438  0.2705E+03  0.6810E+03
     -2.328  0.2536E+03  0.7090E+03
     -2.217  0.2187E+03  0.7331E+03
     -2.107  0.1702E+03  0.7519E+03
     -1.996  0.1288E+03  0.7662E+03
     -1.886  0.1895E+03  0.7871E+03
     -1.775  0.1988E+03  0.8090E+03
     -1.665  0.1518E+03  0.8258E+03
     -1.555  0.2170E+03  0.8498E+03
     -1.444  0.2883E+03  0.8816E+03
     -1.334  0.2910E+03  0.9138E+03
     -1.223  0.1207E+03  0.9271E+03
     -1.113  0.1182E+03  0.9401E+03
     -1.002  0.2273E+03  0.9653E+03
     -0.892  0.3264E+03  0.1001E+04
     -0.781  0.1700E+03  0.1020E+04
     -0.671  0.1443E+03  0.1036E+04
     -0.561  0.1729E+03  0.1055E+04
     -0.450  0.1805E+03  0.1075E+04
     -0.340  0.1200E+03  0.1088E+04
     -0.229  0.1505E+03  0.1105E+04
     -0.119  0.2083E+03  0.1128E+04
     -0.008  0.1729E+03  0.1147E+04
      0.102  0.1876E+03  0.1168E+04
      0.213  0.1629E+03  0.1186E+04
      0.323  0.1778E+03  0.1205E+04
      0.433  0.2074E+03  0.1228E+04
      0.544  0.1769E+03  0.1248E+04
      0.654  0.1427E+03  0.1264E+04
      0.765  0.2307E+03  0.1289E+04
      0.875  0.6263E+02  0.1296E+04
      0.986  0.3242E+00  0.1296E+04
      1.096  0.1659E-05  0.1296E+04
      1.207  0.1382E-14  0.1296E+04
      1.317  0.0000E+00  0.1296E+04
      1.427  0.0000E+00  0.1296E+04
      1.538  0.0000E+00  0.1296E+04
      1.648  0.0000E+00  0.1296E+04
      1.759  0.0000E+00  0.1296E+04
      1.869  0.0000E+00  0.1296E+04
      1.980  0.0000E+00  0.1296E+04
      2.090  0.0000E+00  0.1296E+04
      2.201  0.0000E+00  0.1296E+04
      2.311  0.0000E+00  0.1296E+04
      2.421  0.0000E+00  0.1296E+04
      2.532  0.0000E+00  0.1296E+04
      2.642  0.0000E+00  0.1296E+04
      2.753  0.0000E+00  0.1296E+04
      2.863  0.0000E+00  0.1296E+04
      2.974  0.0000E+00  0.1296E+04
      3.084  0.0000E+00  0.1296E+04
      3.195  0.0000E+00  0.1296E+04
      3.305  0.0000E+00  0.1296E+04
      3.416  0.0000E+00  0.1296E+04
      3.526  0.0000E+00  0.1296E+04
      3.636  0.0000E+00  0.1296E+04
      3.747  0.0000E+00  0.1296E+04
      3.857  0.0000E+00  0.1296E+04
      3.968  0.0000E+00  0.1296E+04
      4.078  0.0000E+00  0.1296E+04
      4.189  0.0000E+00  0.1296E+04
      4.299  0.0000E+00  0.1296E+04
      4.410  0.0000E+00  0.1296E+04
      4.520  0.0000E+00  0.1296E+04
      4.630  0.0000E+00  0.1296E+04
      4.741  0.0000E+00  0.1296E+04
      4.851  0.0000E+00  0.1296E+04
      4.962  0.0000E+00  0.1296E+04
      5.072  0.0000E+00  0.1296E+04
      5.183  0.0000E+00  0.1296E+04
      5.293  0.0000E+00  0.1296E+04
      5.404  0.0000E+00  0.1296E+04
      5.514  0.0000E+00  0.1296E+04
      5.624  0.0000E+00  0.1296E+04
      5.735  0.0000E+00  0.1296E+04
      5.845  0.0000E+00  0.1296E+04
      5.956  0.0000E+00  0.1296E+04
      6.066  0.0000E+00  0.1296E+04
      6.177  0.0000E+00  0.1296E+04
      6.287  0.0000E+00  0.1296E+04
      6.398  0.0000E+00  0.1296E+04
      6.508  0.7293E-11  0.1296E+04
      6.618  0.8157E-04  0.1296E+04
      6.729  0.1151E+00  0.1296E+04
      6.839  0.1523E+01  0.1296E+04
      6.950  0.3989E+01  0.1297E+04
      7.060  0.3278E+01  0.1297E+04
      7.171  0.8512E+01  0.1298E+04
      7.281  0.4864E+01  0.1298E+04
      7.392  0.8350E+01  0.1299E+04
      7.502  0.1030E+02  0.1301E+04
      7.612  0.1144E+02  0.1302E+04
      7.723  0.8677E+01  0.1303E+04
      7.833  0.1076E+02  0.1304E+04
      7.944  0.1958E+02  0.1306E+04
      8.054  0.1536E+02  0.1308E+04
      8.165  0.1016E+02  0.1309E+04
      8.275  0.2023E+02  0.1311E+04
      8.386  0.2329E+02  0.1314E+04
      8.496  0.2003E+02  0.1316E+04
      8.607  0.2416E+02  0.1319E+04
      8.717  0.2180E+02  0.1321E+04
      8.827  0.3523E+02  0.1325E+04
      8.938  0.3581E+02  0.1329E+04
      9.048  0.2931E+02  0.1332E+04
      9.159  0.3300E+02  0.1336E+04
      9.269  0.2918E+02  0.1339E+04
      9.380  0.3903E+02  0.1343E+04
      9.490  0.2566E+02  0.1346E+04
      9.601  0.3294E+02  0.1350E+04
      9.711  0.4969E+02  0.1355E+04
      9.821  0.7041E+02  0.1363E+04
      9.932  0.1125E+03  0.1375E+04
     10.042  0.1699E+03  0.1394E+04
     10.153  0.1408E+03  0.1410E+04
     10.263  0.1146E+03  0.1422E+04
     10.374  0.1428E+03  0.1438E+04
     10.484  0.1582E+03  0.1456E+04
     10.595  0.2487E+03  0.1483E+04
     10.705  0.2122E+03  0.1507E+04
     10.815  0.1644E+03  0.1525E+04
     10.926  0.1107E+03  0.1537E+04
     11.036  0.1071E+03  0.1549E+04
     11.147  0.1041E+03  0.1560E+04
     11.257  0.5745E+02  0.1567E+04
     11.368  0.1248E+02  0.1568E+04
     11.478  0.6826E-01  0.1568E+04
     11.589  0.3139E-06  0.1568E+04
     11.699  0.0000E+00  0.1568E+04
     11.809  0.0000E+00  0.1568E+04
     11.920  0.0000E+00  0.1568E+04
     12.030  0.0000E+00  0.1568E+04
     12.141  0.0000E+00  0.1568E+04
     12.251  0.0000E+00  0.1568E+04
     12.362  0.0000E+00  0.1568E+04
     12.472  0.0000E+00  0.1568E+04
     12.583  0.0000E+00  0.1568E+04
     12.693  0.0000E+00  0.1568E+04
     12.803  0.0000E+00  0.1568E+04
