  243  243    1    1
  0.1311381E+02  0.1499190E-08  0.1499190E-08  0.1637160E-08  0.5000000E-15
  1.000000000000000E-004
  CAR 
 (Si O2)81  (P1) ~ Ciellie_MCM41 (MD     
   1296     12    784
 
  0.0000000E+00  0.0000000E+00  0.0000000E+00  0.1562500E-01
    1      -18.824442
    2      -18.615617
    3      -18.615615
    4      -18.536831
    5      -18.536823
    6      -18.536773
    7      -18.536655
    8      -18.536603
    9      -18.536596
   10      -18.407096
   11      -18.407095
   12      -18.407052
   13      -18.407050
   14      -18.407017
   15      -18.407015
   16      -18.406926
   17      -18.406924
   18      -18.406891
   19      -18.406889
   20      -18.406843
   21      -18.406842
   22      -18.279492
   23      -18.279490
   24      -18.279489
   25      -18.279487
   26      -18.116352
   27      -18.116350
   28      -18.116318
   29      -18.116315
   30      -18.045035
   31      -18.045035
   32      -17.949328
   33      -17.949327
   34      -17.949276
   35      -17.949276
   36      -17.949205
   37      -17.949203
   38      -17.949193
   39      -17.949192
   40      -17.949124
   41      -17.949123
   42      -17.949070
   43      -17.949069
   44      -17.799751
   45      -17.799751
   46      -17.799748
   47      -17.799748
   48      -17.672610
   49      -17.672606
   50      -17.672593
   51      -17.672335
   52      -17.672332
   53      -17.672321
   54      -17.457542
   55      -17.457541
   56      -17.457539
   57      -17.457538
   58      -17.313550
   59      -17.313546
   60      -17.288649
   61      -17.288604
   62      -17.275992
   63      -17.275880
   64      -17.275856
   65      -17.275764
   66      -17.275745
   67      -17.275636
   68      -17.136335
   69      -17.136335
   70      -17.136334
   71      -17.136333
   72      -17.136277
   73      -17.136275
   74      -17.136272
   75      -17.136270
   76      -17.136215
   77      -17.136215
   78      -17.136214
   79      -17.136214
   80      -16.692161
   81      -16.692158
   82      -16.666314
   83      -16.666312
   84      -16.666311
   85      -16.666309
   86      -16.658517
   87      -16.654974
   88      -16.654973
   89      -16.654959
   90      -16.654958
   91      -16.653512
   92      -16.653511
   93      -16.653465
   94      -16.653463
   95      -16.653384
   96      -16.653381
   97      -16.653323
   98      -16.653320
   99      -16.653240
  100      -16.653239
  101      -16.653178
  102      -16.653176
  103      -16.651900
  104      -16.651896
  105      -16.651894
  106      -16.651833
  107      -16.651830
  108      -16.651826
  109      -16.647264
  110      -16.647260
  111      -16.646839
  112      -16.646837
  113      -16.645736
  114      -16.645733
  115      -16.645711
  116      -16.645708
  117      -16.645697
  118      -16.645694
  119      -16.645661
  120      -16.645659
  121      -16.645639
  122      -16.645634
  123      -16.645587
  124      -16.645582
  125      -16.644834
  126      -16.644829
  127      -16.644792
  128      -16.644698
  129      -16.644654
  130      -16.644643
  131      -16.639538
  132      -16.639536
  133      -16.639495
  134      -16.639492
  135      -16.638872
  136      -16.638872
  137      -16.638869
  138      -16.638868
  139      -16.635632
  140      -16.635519
  141      -16.635491
  142      -16.635402
  143      -16.635378
  144      -16.635256
  145      -16.627614
  146      -16.627613
  147      -16.626813
  148      -16.626813
  149      -16.626720
  150      -16.626719
  151      -16.626704
  152      -16.626702
  153      -16.626601
  154      -16.626599
  155      -16.626587
  156      -16.626586
  157      -16.626476
  158      -16.626476
  159      -16.621866
  160      -16.621863
  161      -16.620450
  162      -16.620397
  163       -8.885783
  164       -8.885780
  165       -8.192274
  166       -8.192274
  167       -8.192244
  168       -8.192243
  169       -8.192208
  170       -8.192205
  171       -8.192181
  172       -8.192179
  173       -8.192142
  174       -8.192141
  175       -8.192112
  176       -8.192112
  177       -8.077991
  178       -8.077991
  179       -7.956826
  180       -7.956824
  181       -7.956801
  182       -7.956751
  183       -7.956732
  184       -7.956721
  185       -7.826447
  186       -7.826419
  187       -7.673562
  188       -7.673561
  189       -7.673560
  190       -7.673559
  191       -7.181721
  192       -7.181720
  193       -7.181708
  194       -7.181706
  195       -7.181701
  196       -7.181697
  197       -6.765243
  198       -6.765243
  199       -6.765240
  200       -6.765240
  201       -6.656572
  202       -6.656572
  203       -6.656566
  204       -6.656565
  205       -6.656526
  206       -6.656525
  207       -6.656483
  208       -6.656483
  209       -6.656442
  210       -6.656441
  211       -6.656441
  212       -6.656441
  213       -6.330853
  214       -6.330853
  215       -6.159309
  216       -6.159306
  217       -6.159275
  218       -6.159271
  219       -6.156281
  220       -6.156278
  221       -6.156278
  222       -6.156275
  223       -5.718680
  224       -5.718679
  225       -5.718672
  226       -5.718671
  227       -5.718629
  228       -5.718629
  229       -5.718628
  230       -5.718627
  231       -5.718595
  232       -5.718594
  233       -5.718589
  234       -5.718587
  235       -5.149681
  236       -5.149679
  237       -5.145492
  238       -5.145490
  239       -5.102144
  240       -5.102144
  241       -5.055119
  242       -5.053417
  243       -5.053417
  244       -5.053413
  245       -5.053396
  246       -5.053395
  247       -5.053393
  248       -5.035676
  249       -5.035648
  250       -5.035606
  251       -5.035579
  252       -5.035569
  253       -5.035499
  254       -4.937723
  255       -4.937722
  256       -4.937693
  257       -4.937692
  258       -4.937689
  259       -4.937687
  260       -4.937644
  261       -4.937643
  262       -4.937642
  263       -4.937641
  264       -4.937604
  265       -4.937602
  266       -4.869827
  267       -4.869803
  268       -4.869792
  269       -4.869757
  270       -4.869755
  271       -4.869741
  272       -4.842334
  273       -4.842332
  274       -4.842309
  275       -4.842307
  276       -4.822926
  277       -4.822926
  278       -4.822926
  279       -4.822926
  280       -4.725683
  281       -4.633077
  282       -4.633071
  283       -4.509571
  284       -4.509571
  285       -4.509562
  286       -4.509561
  287       -4.509526
  288       -4.509525
  289       -4.509524
  290       -4.509523
  291       -4.509485
  292       -4.509485
  293       -4.509473
  294       -4.509473
  295       -4.443740
  296       -4.443737
  297       -4.443735
  298       -4.443733
  299       -4.269727
  300       -4.269725
  301       -4.269725
  302       -4.269724
  303       -4.253437
  304       -4.253437
  305       -4.253403
  306       -4.253402
  307       -4.253397
  308       -4.253394
  309       -4.253392
  310       -4.253390
  311       -4.253386
  312       -4.253385
  313       -4.253347
  314       -4.253346
  315       -4.106087
  316       -4.106068
  317       -4.106057
  318       -4.106044
  319       -4.106035
  320       -4.106026
  321       -4.003772
  322       -4.003769
  323       -3.855232
  324       -3.855229
  325       -2.538068
  326       -2.538067
  327       -2.538066
  328       -2.538064
  329       -2.481728
  330       -2.481727
  331       -2.481711
  332       -2.481711
  333       -2.481650
  334       -2.481650
  335       -2.481645
  336       -2.481645
  337       -2.481585
  338       -2.481585
  339       -2.481569
  340       -2.481568
  341       -2.456136
  342       -2.456119
  343       -2.456119
  344       -2.456043
  345       -2.456038
  346       -2.456026
  347       -2.322549
  348       -2.322547
  349       -2.322428
  350       -2.322427
  351       -2.283485
  352       -2.283484
  353       -2.283471
  354       -2.283470
  355       -2.283426
  356       -2.283425
  357       -2.283368
  358       -2.283368
  359       -2.283328
  360       -2.283328
  361       -2.283314
  362       -2.283313
  363       -2.223856
  364       -2.216318
  365       -2.216318
  366       -2.216316
  367       -2.216316
  368       -2.185526
  369       -2.185504
  370       -2.185491
  371       -2.185415
  372       -2.185388
  373       -2.185367
  374       -2.180932
  375       -2.180932
  376       -2.179858
  377       -2.179846
  378       -2.147997
  379       -2.147997
  380       -2.147995
  381       -2.147995
  382       -2.020180
  383       -2.020178
  384       -2.014382
  385       -2.014380
  386       -1.892964
  387       -1.892961
  388       -1.889358
  389       -1.889293
  390       -1.889267
  391       -1.889266
  392       -1.889248
  393       -1.889178
  394       -1.832817
  395       -1.832815
  396       -1.832786
  397       -1.832784
  398       -1.832763
  399       -1.832761
  400       -1.832728
  401       -1.832726
  402       -1.832683
  403       -1.832681
  404       -1.832624
  405       -1.832622
  406       -1.829800
  407       -1.680082
  408       -1.680053
  409       -1.679909
  410       -1.679883
  411       -1.679839
  412       -1.679783
  413       -1.648135
  414       -1.648134
  415       -1.648110
  416       -1.648110
  417       -1.648088
  418       -1.648087
  419       -1.648083
  420       -1.648082
  421       -1.648054
  422       -1.648053
  423       -1.648039
  424       -1.648039
  425       -1.555956
  426       -1.555955
  427       -1.497236
  428       -1.497235
  429       -1.497177
  430       -1.497176
  431       -1.497174
  432       -1.497173
  433       -1.497165
  434       -1.497164
  435       -1.497164
  436       -1.497163
  437       -1.497111
  438       -1.497111
  439       -1.484673
  440       -1.484673
  441       -1.406579
  442       -1.406578
  443       -1.373019
  444       -1.373016
  445       -1.373010
  446       -1.373008
  447       -1.371087
  448       -1.371051
  449       -1.370974
  450       -1.370968
  451       -1.370942
  452       -1.370889
  453       -1.334395
  454       -1.334395
  455       -1.334395
  456       -1.334394
  457       -1.310552
  458       -1.310551
  459       -1.310516
  460       -1.310516
  461       -1.275167
  462       -1.275167
  463       -1.275166
  464       -1.275166
  465       -1.223639
  466       -1.223626
  467       -1.223594
  468       -1.223577
  469       -1.223524
  470       -1.223513
  471       -1.148849
  472       -1.148849
  473       -1.120758
  474       -1.120758
  475       -1.044600
  476       -1.044595
  477       -1.041196
  478       -1.041194
  479       -0.982334
  480       -0.982327
  481       -0.982324
  482       -0.982323
  483       -0.982105
  484       -0.982100
  485       -0.981509
  486       -0.973793
  487       -0.973404
  488       -0.929859
  489       -0.929857
  490       -0.929833
  491       -0.929832
  492       -0.929779
  493       -0.929778
  494       -0.929745
  495       -0.929744
  496       -0.929722
  497       -0.929721
  498       -0.929648
  499       -0.929647
  500       -0.866979
  501       -0.866978
  502       -0.866953
  503       -0.866952
  504       -0.866919
  505       -0.866919
  506       -0.866885
  507       -0.866884
  508       -0.866866
  509       -0.866865
  510       -0.866843
  511       -0.866842
  512       -0.695509
  513       -0.695504
  514       -0.695307
  515       -0.695301
  516       -0.656496
  517       -0.656495
  518       -0.656436
  519       -0.656435
  520       -0.656422
  521       -0.656422
  522       -0.656346
  523       -0.656345
  524       -0.656345
  525       -0.656345
  526       -0.656289
  527       -0.656288
  528       -0.631118
  529       -0.631117
  530       -0.631114
  531       -0.631113
  532       -0.445154
  533       -0.445116
  534       -0.445046
  535       -0.444999
  536       -0.444991
  537       -0.444875
  538       -0.377975
  539       -0.377974
  540       -0.377972
  541       -0.377971
  542       -0.326663
  543       -0.326660
  544       -0.282543
  545       -0.282526
  546       -0.282335
  547       -0.282317
  548       -0.282308
  549       -0.282285
  550       -0.275798
  551       -0.275798
  552       -0.275789
  553       -0.275789
  554       -0.225905
  555       -0.225675
  556       -0.138903
  557       -0.138903
  558       -0.138889
  559       -0.138888
  560       -0.138882
  561       -0.138882
  562       -0.138860
  563       -0.138860
  564       -0.138790
  565       -0.138789
  566       -0.138769
  567       -0.138767
  568       -0.069771
  569       -0.069739
  570       -0.069719
  571       -0.069653
  572       -0.069648
  573       -0.069610
  574        0.078614
  575        0.078615
  576        0.078618
  577        0.078619
  578        0.127897
  579        0.127900
  580        0.127910
  581        0.127912
  582        0.128037
  583        0.128040
  584        0.128048
  585        0.128050
  586        0.128083
  587        0.128086
  588        0.128105
  589        0.128108
  590        0.143666
  591        0.143666
  592        0.143672
  593        0.143672
  594        0.249872
  595        0.249873
  596        0.249881
  597        0.249881
  598        0.249902
  599        0.249903
  600        0.249907
  601        0.249908
  602        0.249932
  603        0.249932
  604        0.249940
  605        0.249941
  606        0.311206
  607        0.311212
  608        0.311412
  609        0.311416
  610        0.318718
  611        0.318734
  612        0.415513
  613        0.415514
  614        0.415520
  615        0.415522
  616        0.436920
  617        0.436923
  618        0.460106
  619        0.460106
  620        0.460129
  621        0.460129
  622        0.460132
  623        0.460135
  624        0.612895
  625        0.662083
  626        0.662084
  627        0.662114
  628        0.662115
  629        0.662124
  630        0.662125
  631        0.662154
  632        0.662155
  633        0.662189
  634        0.662190
  635        0.662244
  636        0.662246
  637        0.728083
  638        0.728088
  639        0.728144
  640        0.728159
  641        0.728174
  642        0.728250
  643        0.730292
  644        0.730293
  645        0.752548
  646        0.752556
  647        0.796654
  648        0.796654
  649        6.740175
  650        7.687817
  651        7.687819
  652        8.062477
  653        8.062548
  654        8.062570
  655        8.062674
  656        8.062827
  657        8.062844
  658        8.747817
  659        8.747818
  660        8.747888
  661        8.747890
  662        8.747893
  663        8.747895
  664        8.748006
  665        8.748008
  666        8.748144
  667        8.748146
  668        8.748149
  669        8.748151
  670        9.465053
  671        9.465054
  672        9.551317
  673        9.551319
  674        9.552032
  675        9.552033
  676        9.552754
  677        9.552785
  678        9.873515
  679        9.873515
  680        9.873536
  681        9.873536
  682        9.906608
  683        9.906650
  684        9.906771
  685        9.906828
  686        9.906867
  687        9.906941
  688        9.940637
  689        9.940638
  690        9.940643
  691        9.940644
  692       10.006408
  693       10.006872
  694       10.131453
  695       10.131454
  696       10.131468
  697       10.131468
  698       10.131579
  699       10.131579
  700       10.131579
  701       10.131580
  702       10.131684
  703       10.131684
  704       10.131712
  705       10.131713
  706       10.202427
  707       10.202433
  708       10.302011
  709       10.302574
  710       10.343253
  711       10.343254
  712       10.343274
  713       10.343275
  714       10.343373
  715       10.343374
  716       10.343415
  717       10.343416
  718       10.343533
  719       10.343534
  720       10.343540
  721       10.343541
  722       10.389609
  723       10.389610
  724       10.489659
  725       10.489687
  726       10.489706
  727       10.489745
  728       10.489804
  729       10.489874
  730       10.507941
  731       10.507956
  732       10.542340
  733       10.542345
  734       10.542399
  735       10.542422
  736       10.542663
  737       10.542674
  738       10.542718
  739       10.542722
  740       10.542839
  741       10.542853
  742       10.542938
  743       10.542951
  744       10.570480
  745       10.570495
  746       10.570499
  747       10.570519
  748       10.570535
  749       10.570637
  750       10.623442
  751       10.623446
  752       10.623458
  753       10.623481
  754       10.772602
  755       10.772622
  756       10.772663
  757       10.772697
  758       10.772732
  759       10.772739
  760       10.772761
  761       10.772795
  762       10.772834
  763       10.772870
  764       10.773157
  765       10.774336
  766       10.825786
  767       10.825846
  768       10.826333
  769       10.827815
  770       10.890515
  771       10.890675
  772       10.890904
  773       10.891121
  774       10.891734
  775       10.895820
  776       11.000400
  777       11.003300
  778       11.016570
  779       11.024439
  780       11.064655
  781       11.066421
  782       11.069783
  783       11.077975
  784       11.121362
 
  0.2500000E+00  0.7300179E-17  0.3053387E-23  0.9375000E-01
    1      -18.804078
    2      -18.653811
    3      -18.599352
    4      -18.599350
    5      -18.583927
    6      -18.583922
    7      -18.483685
    8      -18.483682
    9      -18.460821
   10      -18.460805
   11      -18.435913
   12      -18.435912
   13      -18.435903
   14      -18.435901
   15      -18.415451
   16      -18.365910
   17      -18.365910
   18      -18.365885
   19      -18.365882
   20      -18.346136
   21      -18.346132
   22      -18.290917
   23      -18.290914
   24      -18.290901
   25      -18.290897
   26      -18.243742
   27      -18.243716
   28      -18.039293
   29      -18.039293
   30      -17.991678
   31      -17.991677
   32      -17.989017
   33      -17.988987
   34      -17.966966
   35      -17.966965
   36      -17.966955
   37      -17.966952
   38      -17.918513
   39      -17.918511
   40      -17.918483
   41      -17.918480
   42      -17.900068
   43      -17.900066
   44      -17.825895
   45      -17.825893
   46      -17.825875
   47      -17.825873
   48      -17.817133
   49      -17.761468
   50      -17.761448
   51      -17.610024
   52      -17.610020
   53      -17.522001
   54      -17.416614
   55      -17.416612
   56      -17.416600
   57      -17.416599
   58      -17.316671
   59      -17.308373
   60      -17.308360
   61      -17.287319
   62      -17.282069
   63      -17.282043
   64      -17.280759
   65      -17.280725
   66      -17.279579
   67      -17.272898
   68      -17.271831
   69      -17.271829
   70      -17.224864
   71      -17.224861
   72      -17.224827
   73      -17.224824
   74      -17.075849
   75      -17.075847
   76      -17.075825
   77      -17.075823
   78      -16.980434
   79      -16.980432
   80      -16.736904
   81      -16.736903
   82      -16.664547
   83      -16.664545
   84      -16.664534
   85      -16.664532
   86      -16.659669
   87      -16.659666
   88      -16.657751
   89      -16.657749
   90      -16.657734
   91      -16.657730
   92      -16.657458
   93      -16.655117
   94      -16.655116
   95      -16.655114
   96      -16.655112
   97      -16.653848
   98      -16.652950
   99      -16.652945
  100      -16.651972
  101      -16.651970
  102      -16.651957
  103      -16.651954
  104      -16.651496
  105      -16.651462
  106      -16.651358
  107      -16.649396
  108      -16.649280
  109      -16.649275
  110      -16.649063
  111      -16.649063
  112      -16.649007
  113      -16.649003
  114      -16.648336
  115      -16.648331
  116      -16.647018
  117      -16.646962
  118      -16.645949
  119      -16.645946
  120      -16.643550
  121      -16.643548
  122      -16.643508
  123      -16.643504
  124      -16.642636
  125      -16.642594
  126      -16.641656
  127      -16.641643
  128      -16.640246
  129      -16.640243
  130      -16.640046
  131      -16.640043
  132      -16.638897
  133      -16.638575
  134      -16.638553
  135      -16.637898
  136      -16.636992
  137      -16.636965
  138      -16.636660
  139      -16.636659
  140      -16.636651
  141      -16.636649
  142      -16.632366
  143      -16.632340
  144      -16.630809
  145      -16.630806
  146      -16.630128
  147      -16.628878
  148      -16.628876
  149      -16.628874
  150      -16.628871
  151      -16.625369
  152      -16.625366
  153      -16.624923
  154      -16.624922
  155      -16.624901
  156      -16.624900
  157      -16.624761
  158      -16.624759
  159      -16.622898
  160      -16.622801
  161      -16.622799
  162      -16.621583
  163       -8.832460
  164       -8.832457
  165       -8.454351
  166       -8.454348
  167       -8.294522
  168       -8.294519
  169       -8.294516
  170       -8.294513
  171       -8.064768
  172       -8.064765
  173       -8.040299
  174       -8.040297
  175       -8.040283
  176       -8.040279
  177       -7.987066
  178       -7.987058
  179       -7.986368
  180       -7.957312
  181       -7.957309
  182       -7.948958
  183       -7.948952
  184       -7.914896
  185       -7.838587
  186       -7.775920
  187       -7.729153
  188       -7.729152
  189       -7.729140
  190       -7.729137
  191       -7.420943
  192       -7.259782
  193       -7.259772
  194       -7.021927
  195       -7.021907
  196       -6.979412
  197       -6.785933
  198       -6.785931
  199       -6.771106
  200       -6.771105
  201       -6.771093
  202       -6.771091
  203       -6.720194
  204       -6.720192
  205       -6.720186
  206       -6.720184
  207       -6.596469
  208       -6.596468
  209       -6.596467
  210       -6.596466
  211       -6.530573
  212       -6.530572
  213       -6.485840
  214       -6.485816
  215       -6.356990
  216       -6.356989
  217       -6.089517
  218       -6.089514
  219       -6.089507
  220       -6.089504
  221       -5.830489
  222       -5.830452
  223       -5.805941
  224       -5.805939
  225       -5.805903
  226       -5.805900
  227       -5.804822
  228       -5.804820
  229       -5.691225
  230       -5.691225
  231       -5.691197
  232       -5.691195
  233       -5.592405
  234       -5.592404
  235       -5.286718
  236       -5.286717
  237       -5.255581
  238       -5.255530
  239       -5.194477
  240       -5.125814
  241       -5.125813
  242       -5.119930
  243       -5.119921
  244       -5.048303
  245       -5.042952
  246       -5.030451
  247       -4.996681
  248       -4.996679
  249       -4.959537
  250       -4.959536
  251       -4.952844
  252       -4.952810
  253       -4.949698
  254       -4.949698
  255       -4.949670
  256       -4.949668
  257       -4.913776
  258       -4.913719
  259       -4.902014
  260       -4.902013
  261       -4.901980
  262       -4.901978
  263       -4.899554
  264       -4.899551
  265       -4.893656
  266       -4.870723
  267       -4.868891
  268       -4.868849
  269       -4.866545
  270       -4.866505
  271       -4.860648
  272       -4.856308
  273       -4.856297
  274       -4.843425
  275       -4.843417
  276       -4.832055
  277       -4.832055
  278       -4.832046
  279       -4.832046
  280       -4.777342
  281       -4.665034
  282       -4.641401
  283       -4.641400
  284       -4.559523
  285       -4.559522
  286       -4.559516
  287       -4.559515
  288       -4.553020
  289       -4.457150
  290       -4.457149
  291       -4.457141
  292       -4.457140
  293       -4.438560
  294       -4.438557
  295       -4.438551
  296       -4.438548
  297       -4.427543
  298       -4.427541
  299       -4.310322
  300       -4.310321
  301       -4.288947
  302       -4.288945
  303       -4.288935
  304       -4.288934
  305       -4.280307
  306       -4.280306
  307       -4.280306
  308       -4.280304
  309       -4.258077
  310       -4.220958
  311       -4.220955
  312       -4.220950
  313       -4.220947
  314       -4.168861
  315       -4.168858
  316       -4.162918
  317       -4.162896
  318       -4.029086
  319       -4.029055
  320       -4.024903
  321       -4.024900
  322       -3.992717
  323       -3.880308
  324       -3.880295
  325       -2.530756
  326       -2.530754
  327       -2.530751
  328       -2.530748
  329       -2.505184
  330       -2.505183
  331       -2.500209
  332       -2.500208
  333       -2.500207
  334       -2.500205
  335       -2.459076
  336       -2.459076
  337       -2.459071
  338       -2.459070
  339       -2.446223
  340       -2.446199
  341       -2.442407
  342       -2.442397
  343       -2.439631
  344       -2.424599
  345       -2.416461
  346       -2.416460
  347       -2.399697
  348       -2.399697
  349       -2.362080
  350       -2.361995
  351       -2.338366
  352       -2.338364
  353       -2.338321
  354       -2.338320
  355       -2.291262
  356       -2.291165
  357       -2.287082
  358       -2.287079
  359       -2.287008
  360       -2.287005
  361       -2.252842
  362       -2.245678
  363       -2.223549
  364       -2.223549
  365       -2.220003
  366       -2.219988
  367       -2.217861
  368       -2.217860
  369       -2.217849
  370       -2.217848
  371       -2.212473
  372       -2.189793
  373       -2.189753
  374       -2.171865
  375       -2.161001
  376       -2.145215
  377       -2.145215
  378       -2.063889
  379       -2.063886
  380       -2.063785
  381       -2.063783
  382       -2.018603
  383       -2.018602
  384       -2.010598
  385       -1.997566
  386       -1.997523
  387       -1.919085
  388       -1.919071
  389       -1.886076
  390       -1.886073
  391       -1.872398
  392       -1.872395
  393       -1.872275
  394       -1.872273
  395       -1.845362
  396       -1.845359
  397       -1.842439
  398       -1.842436
  399       -1.842364
  400       -1.842362
  401       -1.836542
  402       -1.836514
  403       -1.823649
  404       -1.823647
  405       -1.810738
  406       -1.759701
  407       -1.749119
  408       -1.736242
  409       -1.736148
  410       -1.705969
  411       -1.705968
  412       -1.691101
  413       -1.691099
  414       -1.691059
  415       -1.691058
  416       -1.604814
  417       -1.604669
  418       -1.604630
  419       -1.604628
  420       -1.604569
  421       -1.604566
  422       -1.589514
  423       -1.589513
  424       -1.532922
  425       -1.532921
  426       -1.506285
  427       -1.505003
  428       -1.505003
  429       -1.503340
  430       -1.503338
  431       -1.476441
  432       -1.476440
  433       -1.471267
  434       -1.471266
  435       -1.471241
  436       -1.471238
  437       -1.470208
  438       -1.470194
  439       -1.462201
  440       -1.462199
  441       -1.462128
  442       -1.462127
  443       -1.439009
  444       -1.439006
  445       -1.438886
  446       -1.438883
  447       -1.428448
  448       -1.428414
  449       -1.422286
  450       -1.422263
  451       -1.417236
  452       -1.371273
  453       -1.371209
  454       -1.365877
  455       -1.365875
  456       -1.365780
  457       -1.365778
  458       -1.330152
  459       -1.322415
  460       -1.304208
  461       -1.304203
  462       -1.267357
  463       -1.267309
  464       -1.179020
  465       -1.179019
  466       -1.178954
  467       -1.178951
  468       -1.173519
  469       -1.173488
  470       -1.122342
  471       -1.107091
  472       -1.107090
  473       -1.091961
  474       -1.091961
  475       -1.038175
  476       -1.008411
  477       -1.008409
  478       -1.000691
  479       -1.000689
  480       -0.997992
  481       -0.985127
  482       -0.974133
  483       -0.974117
  484       -0.974114
  485       -0.973989
  486       -0.973988
  487       -0.971890
  488       -0.971755
  489       -0.965882
  490       -0.958372
  491       -0.958123
  492       -0.957192
  493       -0.957191
  494       -0.957118
  495       -0.957116
  496       -0.936174
  497       -0.936174
  498       -0.915368
  499       -0.915282
  500       -0.903336
  501       -0.903334
  502       -0.899568
  503       -0.899566
  504       -0.899423
  505       -0.899420
  506       -0.814441
  507       -0.814440
  508       -0.814316
  509       -0.814315
  510       -0.799965
  511       -0.799963
  512       -0.794872
  513       -0.794639
  514       -0.750155
  515       -0.750154
  516       -0.690063
  517       -0.690060
  518       -0.690045
  519       -0.690043
  520       -0.658878
  521       -0.658878
  522       -0.658819
  523       -0.658818
  524       -0.571501
  525       -0.571387
  526       -0.562264
  527       -0.562262
  528       -0.562154
  529       -0.562152
  530       -0.539645
  531       -0.539644
  532       -0.531806
  533       -0.531776
  534       -0.489298
  535       -0.489253
  536       -0.453648
  537       -0.417578
  538       -0.417578
  539       -0.417574
  540       -0.417574
  541       -0.405131
  542       -0.302145
  543       -0.296840
  544       -0.296838
  545       -0.281459
  546       -0.262543
  547       -0.256028
  548       -0.255933
  549       -0.250741
  550       -0.250740
  551       -0.246597
  552       -0.245527
  553       -0.237143
  554       -0.237065
  555       -0.225615
  556       -0.225614
  557       -0.225604
  558       -0.225604
  559       -0.172311
  560       -0.172309
  561       -0.172188
  562       -0.172187
  563       -0.151913
  564       -0.151757
  565       -0.149606