       N       E                     dE             d eps       ncg     rms          rms(c)
DAV:   1     0.820374333505E+04    0.82037E+04   -0.59861E+05 18944   0.125E+03
DAV:   2    -0.147508078790E+04   -0.96788E+04   -0.94901E+04 22048   0.336E+02
DAV:   3    -0.217407412451E+04   -0.69899E+03   -0.69600E+03 21984   0.981E+01
DAV:   4    -0.218636114289E+04   -0.12287E+02   -0.12257E+02 22448   0.136E+01
DAV:   5    -0.218664181013E+04   -0.28067E+00   -0.28030E+00 21952   0.189E+00    0.140E+02
DAV:   6    -0.191718652216E+04    0.26946E+03   -0.11203E+03 20944   0.360E+01    0.652E+01
DAV:   7    -0.191560455066E+04    0.15820E+01   -0.32391E+01 23800   0.560E+00    0.233E+01
DAV:   8    -0.191529292941E+04    0.31162E+00   -0.19569E+00 21792   0.193E+00    0.877E+00
DAV:   9    -0.191553000915E+04   -0.23708E+00   -0.79190E-01 20968   0.122E+00    0.150E+00
DAV:  10    -0.191558521093E+04   -0.55202E-01   -0.64218E-02 21296   0.288E-01    0.377E-01
DAV:  11    -0.191558792845E+04   -0.27175E-02   -0.11009E-02 21800   0.135E-01    0.607E-02
DAV:  12    -0.191558818255E+04   -0.25410E-03   -0.33798E-04 22008   0.220E-02    0.586E-02
DAV:  13    -0.191558830933E+04   -0.12678E-03   -0.13498E-04 21296   0.135E-02    0.222E-02
DAV:  14    -0.191558832248E+04   -0.13147E-04   -0.19189E-05 14856   0.538E-03    0.499E-03
DAV:  15    -0.191558832195E+04    0.52349E-06   -0.24625E-06 13664   0.187E-03
   1 F= -.19155883E+04 E0= -.19155883E+04  d E =-.196997E-17
