 243 243   0   0
  0.1311304E+02  0.1499160E-08  0.1499160E-08  0.1637130E-08  0.5000000E-15
   4000.00000000000     
  CAR 
 (Si O2)81  (P1) ~ 3x3x3Supersel (VASP)  
     11.95968747    -21.43572994  301      3.06815759      1.00000000
    -21.436  0.0000E+00  0.0000E+00
    -21.324  0.0000E+00  0.0000E+00
    -21.213  0.0000E+00  0.0000E+00
    -21.102  0.0000E+00  0.0000E+00
    -20.990  0.0000E+00  0.0000E+00
    -20.879  0.0000E+00  0.0000E+00
    -20.768  0.0000E+00  0.0000E+00
    -20.657  0.0000E+00  0.0000E+00
    -20.545  0.0000E+00  0.0000E+00
    -20.434  0.0000E+00  0.0000E+00
    -20.323  0.0000E+00  0.0000E+00
    -20.211  0.1902E-14  0.2083E-15
    -20.100  0.2839E-05  0.3130E-06
    -19.989  0.4273E+00  0.4730E-01
    -19.877  0.1717E+02  0.1948E+01
    -19.766  0.8933E+01  0.2931E+01
    -19.655  0.8853E+01  0.3902E+01
    -19.543  0.1096E+02  0.5106E+01
    -19.432  0.1257E+02  0.6488E+01
    -19.321  0.1555E+02  0.8199E+01
    -19.209  0.1741E+02  0.1012E+02
    -19.098  0.2019E+02  0.1234E+02
    -18.987  0.2298E+02  0.1487E+02
    -18.875  0.2590E+02  0.1772E+02
    -18.764  0.2966E+02  0.2099E+02
    -18.653  0.3332E+02  0.2467E+02
    -18.541  0.3726E+02  0.2878E+02
    -18.430  0.4065E+02  0.3326E+02
    -18.319  0.4526E+02  0.3826E+02
    -18.208  0.4844E+02  0.4361E+02
    -18.096  0.5176E+02  0.4933E+02
    -17.985  0.5546E+02  0.5546E+02
    -17.874  0.5733E+02  0.6180E+02
    -17.762  0.6118E+02  0.6857E+02
    -17.651  0.6392E+02  0.7564E+02
    -17.540  0.6597E+02  0.8293E+02
    -17.428  0.6829E+02  0.9049E+02
    -17.317  0.7118E+02  0.9837E+02
    -17.206  0.7359E+02  0.1065E+03
    -17.094  0.7566E+02  0.1149E+03
    -16.983  0.7757E+02  0.1235E+03
    -16.872  0.7817E+02  0.1321E+03
    -16.760  0.7937E+02  0.1409E+03
    -16.649  0.8105E+02  0.1499E+03
    -16.538  0.8296E+02  0.1591E+03
    -16.426  0.8368E+02  0.1683E+03
    -16.315  0.8382E+02  0.1776E+03
    -16.204  0.8397E+02  0.1869E+03
    -16.092  0.8200E+02  0.1960E+03
    -15.981  0.7980E+02  0.2049E+03
    -15.870  0.7923E+02  0.2137E+03
    -15.759  0.7792E+02  0.2223E+03
    -15.647  0.7725E+02  0.2309E+03
    -15.536  0.7473E+02  0.2392E+03
    -15.425  0.7323E+02  0.2473E+03
    -15.313  0.6906E+02  0.2550E+03
    -15.202  0.6515E+02  0.2622E+03
    -15.091  0.6119E+02  0.2690E+03
    -14.979  0.5876E+02  0.2755E+03
    -14.868  0.5412E+02  0.2815E+03
    -14.757  0.4899E+02  0.2870E+03
    -14.645  0.4476E+02  0.2920E+03
    -14.534  0.4106E+02  0.2965E+03
    -14.423  0.3589E+02  0.3005E+03
    -14.311  0.3314E+02  0.3042E+03
    -14.200  0.2906E+02  0.3075E+03
    -14.089  0.2497E+02  0.3102E+03
    -13.977  0.2102E+02  0.3126E+03
    -13.866  0.1831E+02  0.3146E+03
    -13.755  0.1616E+02  0.3164E+03
    -13.643  0.1346E+02  0.3179E+03
    -13.532  0.1097E+02  0.3192E+03
    -13.421  0.9636E+01  0.3202E+03
    -13.310  0.8485E+01  0.3212E+03
    -13.198  0.6977E+01  0.3220E+03
    -13.087  0.4801E+01  0.3225E+03
    -12.976  0.3332E+01  0.3229E+03
    -12.864  0.2598E+01  0.3232E+03
    -12.753  0.2115E+01  0.3234E+03
    -12.642  0.1770E+01  0.3236E+03
    -12.530  0.1159E+01  0.3237E+03
    -12.419  0.6927E+00  0.3238E+03
    -12.308  0.6209E+00  0.3239E+03
    -12.196  0.5822E+00  0.3240E+03
    -12.085  0.3741E+00  0.3240E+03
    -11.974  0.4680E-01  0.3240E+03
    -11.862  0.1472E-04  0.3240E+03
    -11.751  0.5985E-12  0.3240E+03
    -11.640  0.0000E+00  0.3240E+03
    -11.528  0.0000E+00  0.3240E+03
    -11.417  0.0000E+00  0.3240E+03
    -11.306  0.0000E+00  0.3240E+03
    -11.194  0.0000E+00  0.3240E+03
    -11.083  0.0000E+00  0.3240E+03
    -10.972  0.0000E+00  0.3240E+03
    -10.861  0.0000E+00  0.3240E+03
    -10.749  0.0000E+00  0.3240E+03
    -10.638  0.0000E+00  0.3240E+03
    -10.527  0.0000E+00  0.3240E+03
    -10.415  0.0000E+00  0.3240E+03
    -10.304  0.0000E+00  0.3240E+03
    -10.193  0.0000E+00  0.3240E+03
    -10.081  0.0000E+00  0.3240E+03
     -9.970  0.0000E+00  0.3240E+03
     -9.859  0.0000E+00  0.3240E+03
     -9.747  0.0000E+00  0.3240E+03
     -9.636  0.0000E+00  0.3240E+03
     -9.525  0.0000E+00  0.3240E+03
     -9.413  0.3499E-09  0.3240E+03
     -9.302  0.5179E-03  0.3240E+03
     -9.191  0.2297E+00  0.3240E+03
     -9.079  0.1163E+01  0.3242E+03
     -8.968  0.2056E+01  0.3244E+03
     -8.857  0.3852E+01  0.3248E+03
     -8.745  0.5984E+01  0.3255E+03
     -8.634  0.7939E+01  0.3263E+03
     -8.523  0.9222E+01  0.3274E+03
     -8.412  0.1188E+02  0.3287E+03
     -8.300  0.1337E+02  0.3301E+03
     -8.189  0.1544E+02  0.3318E+03
     -8.078  0.1788E+02  0.3338E+03
     -7.966  0.2174E+02  0.3362E+03
     -7.855  0.2435E+02  0.3389E+03
     -7.744  0.2763E+02  0.3420E+03
     -7.632  0.2835E+02  0.3451E+03
     -7.521  0.3069E+02  0.3485E+03
     -7.410  0.3271E+02  0.3521E+03
     -7.298  0.3548E+02  0.3560E+03
     -7.187  0.3490E+02  0.3599E+03
     -7.076  0.3599E+02  0.3639E+03
     -6.964  0.3725E+02  0.3680E+03
     -6.853  0.3729E+02  0.3721E+03
     -6.742  0.3892E+02  0.3765E+03
     -6.630  0.3903E+02  0.3808E+03
     -6.519  0.3976E+02  0.3852E+03
     -6.408  0.4078E+02  0.3897E+03
     -6.296  0.4190E+02  0.3943E+03
     -6.185  0.4346E+02  0.3992E+03
     -6.074  0.4605E+02  0.4043E+03
     -5.963  0.4471E+02  0.4092E+03
     -5.851  0.4618E+02  0.4143E+03
     -5.740  0.4786E+02  0.4196E+03
     -5.629  0.4766E+02  0.4249E+03
     -5.517  0.4929E+02  0.4304E+03
     -5.406  0.5109E+02  0.4360E+03
     -5.295  0.5255E+02  0.4419E+03
     -5.183  0.5542E+02  0.4480E+03
     -5.072  0.5768E+02  0.4544E+03
     -4.961  0.6004E+02  0.4610E+03
     -4.849  0.6139E+02  0.4678E+03
     -4.738  0.6212E+02  0.4747E+03
     -4.627  0.6491E+02  0.4819E+03
     -4.515  0.6738E+02  0.4894E+03
     -4.404  0.7152E+02  0.4973E+03
     -4.293  0.7476E+02  0.5056E+03
     -4.181  0.7666E+02  0.5140E+03
     -4.070  0.7821E+02  0.5227E+03
     -3.959  0.8217E+02  0.5318E+03
     -3.847  0.8314E+02  0.5410E+03
     -3.736  0.8415E+02  0.5503E+03
     -3.625  0.8522E+02  0.5598E+03
     -3.514  0.8748E+02  0.5695E+03
     -3.402  0.8814E+02  0.5793E+03
     -3.291  0.8931E+02  0.5892E+03
     -3.180  0.9028E+02  0.5992E+03
     -3.068  0.9165E+02  0.6093E+03
     -2.957  0.9379E+02  0.6197E+03
     -2.846  0.9452E+02  0.6302E+03
     -2.734  0.9699E+02  0.6409E+03
     -2.623  0.1004E+03  0.6520E+03
     -2.512  0.1047E+03  0.6636E+03
     -2.400  0.1099E+03  0.6758E+03
     -2.289  0.1136E+03  0.6884E+03
     -2.178  0.1181E+03  0.7015E+03
     -2.066  0.1213E+03  0.7149E+03
     -1.955  0.1253E+03  0.7288E+03
     -1.844  0.1296E+03  0.7431E+03
     -1.732  0.1342E+03  0.7580E+03
     -1.621  0.1366E+03  0.7731E+03
     -1.510  0.1402E+03  0.7887E+03
     -1.398  0.1429E+03  0.8045E+03
     -1.287  0.1457E+03  0.8207E+03
     -1.176  0.1488E+03  0.8371E+03
     -1.065  0.1499E+03  0.8538E+03
     -0.953  0.1515E+03  0.8705E+03
     -0.842  0.1525E+03  0.8874E+03
     -0.731  0.1531E+03  0.9044E+03
     -0.619  0.1557E+03  0.9217E+03
     -0.508  0.1576E+03  0.9391E+03
     -0.397  0.1570E+03  0.9565E+03
     -0.285  0.1570E+03  0.9739E+03
     -0.174  0.1571E+03  0.9913E+03
     -0.063  0.1567E+03  0.1009E+04
      0.049  0.1573E+03  0.1026E+04
      0.160  0.1566E+03  0.1043E+04
      0.271  0.1538E+03  0.1061E+04
      0.383  0.1498E+03  0.1077E+04
      0.494  0.1473E+03  0.1093E+04
      0.605  0.1445E+03  0.1109E+04
      0.717  0.1411E+03  0.1125E+04
      0.828  0.1366E+03  0.1140E+04
      0.939  0.1321E+03  0.1155E+04
      1.051  0.1280E+03  0.1169E+04
      1.162  0.1244E+03  0.1183E+04
      1.273  0.1184E+03  0.1196E+04
      1.384  0.1112E+03  0.1208E+04
      1.496  0.1041E+03  0.1220E+04
      1.607  0.9655E+02  0.1231E+04
      1.718  0.8845E+02  0.1240E+04
      1.830  0.8116E+02  0.1249E+04
      1.941  0.7326E+02  0.1258E+04
      2.052  0.6327E+02  0.1265E+04
      2.164  0.5389E+02  0.1271E+04
      2.275  0.4667E+02  0.1276E+04
      2.386  0.4050E+02  0.1280E+04
      2.498  0.3253E+02  0.1284E+04
      2.609  0.2704E+02  0.1287E+04
      2.720  0.2139E+02  0.1289E+04
      2.832  0.1665E+02  0.1291E+04
      2.943  0.1281E+02  0.1293E+04
      3.054  0.9846E+01  0.1294E+04
      3.166  0.7504E+01  0.1294E+04
      3.277  0.5000E+01  0.1295E+04
      3.388  0.3270E+01  0.1295E+04
      3.500  0.2626E+01  0.1296E+04
      3.611  0.1953E+01  0.1296E+04
      3.722  0.1515E+01  0.1296E+04
      3.833  0.1294E+01  0.1296E+04
      3.945  0.1106E+01  0.1296E+04
      4.056  0.1258E+01  0.1296E+04
      4.167  0.1644E+01  0.1297E+04
      4.279  0.1849E+01  0.1297E+04
      4.390  0.2743E+01  0.1297E+04
      4.501  0.3178E+01  0.1298E+04
      4.613  0.4174E+01  0.1298E+04
      4.724  0.5267E+01  0.1299E+04
      4.835  0.5939E+01  0.1299E+04
      4.947  0.7193E+01  0.1300E+04
      5.058  0.8010E+01  0.1301E+04
      5.169  0.8966E+01  0.1302E+04
      5.281  0.1145E+02  0.1303E+04
      5.392  0.1189E+02  0.1304E+04
      5.503  0.1364E+02  0.1306E+04
      5.615  0.1551E+02  0.1308E+04
      5.726  0.1633E+02  0.1310E+04
      5.837  0.1822E+02  0.1312E+04
      5.949  0.2111E+02  0.1314E+04
      6.060  0.2342E+02  0.1316E+04
      6.171  0.2423E+02  0.1319E+04
      6.282  0.2673E+02  0.1322E+04
      6.394  0.2883E+02  0.1325E+04
      6.505  0.2962E+02  0.1329E+04
      6.616  0.3089E+02  0.1332E+04
      6.728  0.3275E+02  0.1336E+04
      6.839  0.3519E+02  0.1340E+04
      6.950  0.3533E+02  0.1343E+04
      7.062  0.3741E+02  0.1348E+04
      7.173  0.3775E+02  0.1352E+04
      7.284  0.3997E+02  0.1356E+04
      7.396  0.4095E+02  0.1361E+04
      7.507  0.4226E+02  0.1365E+04
      7.618  0.4329E+02  0.1370E+04
      7.730  0.4663E+02  0.1375E+04
      7.841  0.4910E+02  0.1381E+04
      7.952  0.4993E+02  0.1386E+04
      8.064  0.5357E+02  0.1392E+04
      8.175  0.5547E+02  0.1398E+04
      8.286  0.5874E+02  0.1405E+04
      8.398  0.6035E+02  0.1412E+04
      8.509  0.6138E+02  0.1418E+04
      8.620  0.6327E+02  0.1425E+04
      8.731  0.6747E+02  0.1433E+04
      8.843  0.6916E+02  0.1441E+04
      8.954  0.6960E+02  0.1448E+04
      9.065  0.7422E+02  0.1457E+04
      9.177  0.7693E+02  0.1465E+04
      9.288  0.7760E+02  0.1474E+04
      9.399  0.7935E+02  0.1482E+04
      9.511  0.8314E+02  0.1492E+04
      9.622  0.8526E+02  0.1501E+04
      9.733  0.8602E+02  0.1511E+04
      9.845  0.8624E+02  0.1520E+04
      9.956  0.8564E+02  0.1530E+04
     10.067  0.8271E+02  0.1539E+04
     10.179  0.8160E+02  0.1548E+04
     10.290  0.8089E+02  0.1557E+04
     10.401  0.6890E+02  0.1565E+04
     10.513  0.3100E+02  0.1568E+04
     10.624  0.4675E+00  0.1568E+04
     10.735  0.2885E-05  0.1568E+04
     10.847  0.1255E-14  0.1568E+04
     10.958  0.0000E+00  0.1568E+04
     11.069  0.0000E+00  0.1568E+04
     11.180  0.0000E+00  0.1568E+04
     11.292  0.0000E+00  0.1568E+04
     11.403  0.0000E+00  0.1568E+04
     11.514  0.0000E+00  0.1568E+04
     11.626  0.0000E+00  0.1568E+04
     11.737  0.0000E+00  0.1568E+04
     11.848  0.0000E+00  0.1568E+04
     11.960  0.0000E+00  0.1568E+04
     12.00921692    -21.43932737  301      3.10354200      1.00000000
    -21.439  0.0000E+00  0.0000E+00
    -21.328  0.0000E+00  0.0000E+00
    -21.216  0.0000E+00  0.0000E+00
    -21.105  0.0000E+00  0.0000E+00
    -20.993  0.0000E+00  0.0000E+00
    -20.882  0.0000E+00  0.0000E+00
    -20.770  0.0000E+00  0.0000E+00
    -20.659  0.0000E+00  0.0000E+00
    -20.547  0.0000E+00  0.0000E+00
    -20.436  0.0000E+00  0.0000E+00
    -20.324  0.0000E+00  0.0000E+00
    -20.213  0.9958E-18  0.1110E-18
    -20.101  0.2211E-08  0.2465E-09
    -19.990  0.4015E-03  0.4477E-04
    -19.878  0.1528E-01  0.1749E-02
    -19.767  0.2258E-02  0.2000E-02
    -19.655  0.5448E-02  0.2608E-02
    -19.544  0.1600E-01  0.4391E-02
    -19.432  0.1434E-01  0.5990E-02
    -19.321  0.1315E-01  0.7455E-02
    -19.209  0.1713E-01  0.9365E-02
    -19.098  0.2052E-01  0.1165E-01
    -18.986  0.1880E-01  0.1375E-01
    -18.875  0.1671E-01  0.1561E-01
    -18.763  0.4164E-01  0.2025E-01
    -18.652  0.2834E-01  0.2341E-01
    -18.540  0.6360E-01  0.3051E-01
    -18.429  0.5928E-01  0.3712E-01
    -18.317  0.5270E-01  0.4299E-01
    -18.206  0.4883E-01  0.4844E-01
    -18.094  0.5767E-01  0.5487E-01
    -17.983  0.6889E-01  0.6255E-01
    -17.871  0.6834E-01  0.7017E-01
    -17.760  0.6796E-01  0.7774E-01
    -17.648  0.6011E-01  0.8445E-01
    -17.537  0.6389E-01  0.9157E-01
    -17.426  0.9431E-01  0.1021E+00
    -17.314  0.6065E-01  0.1088E+00
    -17.203  0.9036E-01  0.1189E+00
    -17.091  0.8405E-01  0.1283E+00
    -16.980  0.6965E-01  0.1361E+00
    -16.868  0.9980E-01  0.1472E+00
    -16.757  0.7513E-01  0.1556E+00
    -16.645  0.8193E-01  0.1647E+00
    -16.534  0.9256E-01  0.1750E+00
    -16.422  0.6465E-01  0.1822E+00
    -16.311  0.6215E-01  0.1892E+00
    -16.199  0.6909E-01  0.1969E+00
    -16.088  0.9328E-01  0.2073E+00
    -15.976  0.8280E-01  0.2165E+00
    -15.865  0.6539E-01  0.2238E+00
    -15.753  0.9494E-01  0.2344E+00
    -15.642  0.1068E+00  0.2463E+00
    -15.530  0.8593E-01  0.2559E+00
    -15.419  0.6625E-01  0.2632E+00
    -15.307  0.6528E-01  0.2705E+00
    -15.196  0.5465E-01  0.2766E+00
    -15.084  0.7255E-01  0.2847E+00
    -14.973  0.6148E-01  0.2916E+00
    -14.861  0.2042E-01  0.2938E+00
    -14.750  0.3470E-01  0.2977E+00
    -14.638  0.5852E-01  0.3042E+00
    -14.527  0.2508E-01  0.3070E+00
    -14.415  0.2237E-01  0.3095E+00
    -14.304  0.3313E-01  0.3132E+00
    -14.192  0.2294E-01  0.3158E+00
    -14.081  0.2135E-01  0.3182E+00
    -13.969  0.1878E-01  0.3202E+00
    -13.858  0.1546E-01  0.3220E+00
    -13.746  0.7169E-02  0.3228E+00
    -13.635  0.1100E-01  0.3240E+00
    -13.523  0.3790E-04  0.3240E+00
    -13.412  0.1620E-10  0.3240E+00
    -13.300  0.0000E+00  0.3240E+00
    -13.189  0.0000E+00  0.3240E+00
    -13.077  0.0000E+00  0.3240E+00
    -12.966  0.0000E+00  0.3240E+00
    -12.854  0.0000E+00  0.3240E+00
    -12.743  0.0000E+00  0.3240E+00
    -12.631  0.0000E+00  0.3240E+00
    -12.520  0.0000E+00  0.3240E+00
    -12.408  0.0000E+00  0.3240E+00
    -12.297  0.0000E+00  0.3240E+00
    -12.185  0.0000E+00  0.3240E+00
    -12.074  0.0000E+00  0.3240E+00
    -11.962  0.0000E+00  0.3240E+00
    -11.851  0.0000E+00  0.3240E+00
    -11.739  0.0000E+00  0.3240E+00
    -11.628  0.0000E+00  0.3240E+00
    -11.516  0.0000E+00  0.3240E+00
    -11.405  0.0000E+00  0.3240E+00
    -11.293  0.0000E+00  0.3240E+00
    -11.182  0.0000E+00  0.3240E+00
    -11.070  0.0000E+00  0.3240E+00
    -10.959  0.0000E+00  0.3240E+00
    -10.847  0.0000E+00  0.3240E+00
    -10.736  0.0000E+00  0.3240E+00
    -10.624  0.0000E+00  0.3240E+00
    -10.513  0.0000E+00  0.3240E+00
    -10.401  0.0000E+00  0.3240E+00
    -10.290  0.0000E+00  0.3240E+00
    -10.178  0.0000E+00  0.3240E+00
    -10.067  0.0000E+00  0.3240E+00
     -9.955  0.0000E+00  0.3240E+00
     -9.844  0.0000E+00  0.3240E+00
     -9.732  0.0000E+00  0.3240E+00
     -9.621  0.0000E+00  0.3240E+00
     -9.509  0.0000E+00  0.3240E+00
     -9.398  0.0000E+00  0.3240E+00
     -9.286  0.0000E+00  0.3240E+00
     -9.175  0.1992E-17  0.3240E+00
     -9.063  0.3895E-08  0.3240E+00
     -8.952  0.6064E-03  0.3241E+00
     -8.840  0.2848E-01  0.3272E+00
     -8.729  0.6785E-02  0.3280E+00
     -8.617  0.7855E-03  0.3281E+00
     -8.506  0.1582E-01  0.3299E+00
     -8.394  0.2002E-02  0.3301E+00
     -8.283  0.1790E-01  0.3321E+00
     -8.171  0.2354E-01  0.3347E+00
     -8.060  0.2559E-01  0.3375E+00
     -7.948  0.2435E-01  0.3403E+00
     -7.837  0.1757E-01  0.3422E+00
     -7.725  0.3137E-01  0.3457E+00
     -7.614  0.6250E-01  0.3527E+00
     -7.502  0.2396E-01  0.3554E+00
     -7.391  0.5160E-01  0.3611E+00
     -7.279  0.3569E-01  0.3651E+00
     -7.168  0.2669E-01  0.3681E+00
     -7.056  0.3536E-01  0.3720E+00
     -6.945  0.5047E-01  0.3776E+00
     -6.833  0.3719E-01  0.3818E+00
     -6.722  0.4308E-01  0.3866E+00
     -6.610  0.4148E-01  0.3912E+00
     -6.499  0.4263E-01  0.3960E+00
     -6.387  0.4657E-01  0.4012E+00
     -6.276  0.2220E-01  0.4036E+00
     -6.164  0.4942E-01  0.4091E+00
     -6.053  0.5256E-01  0.4150E+00
     -5.942  0.2982E-01  0.4183E+00
     -5.830  0.5434E-01  0.4244E+00
     -5.719  0.5867E-01  0.4309E+00
     -5.607  0.4760E-01  0.4362E+00
     -5.496  0.5283E-01  0.4421E+00
     -5.384  0.6205E-01  0.4490E+00
     -5.273  0.6296E-01  0.4561E+00
     -5.161  0.6090E-01  0.4629E+00
     -5.050  0.6466E-01  0.4701E+00
     -4.938  0.6674E-01  0.4775E+00
     -4.827  0.7599E-01  0.4860E+00
     -4.715  0.6771E-01  0.4935E+00
     -4.604  0.7523E-01  0.5019E+00
     -4.492  0.7680E-01  0.5105E+00
     -4.381  0.8392E-01  0.5198E+00
     -4.269  0.7815E-01  0.5285E+00
     -4.158  0.9381E-01  0.5390E+00
     -4.046  0.7719E-01  0.5476E+00
     -3.935  0.8815E-01  0.5574E+00
     -3.823  0.7903E-01  0.5663E+00
     -3.712  0.8665E-01  0.5759E+00
     -3.600  0.9190E-01  0.5862E+00
     -3.489  0.9944E-01  0.5972E+00
     -3.377  0.7955E-01  0.6061E+00
     -3.266  0.8102E-01  0.6152E+00
     -3.154  0.5204E-01  0.6210E+00
     -3.043  0.8936E-01  0.6309E+00
     -2.931  0.1092E+00  0.6431E+00
     -2.820  0.1039E+00  0.6547E+00
     -2.708  0.7521E-01  0.6631E+00
     -2.597  0.7858E-01  0.6718E+00
     -2.485  0.1212E+00  0.6853E+00
     -2.374  0.1264E+00  0.6994E+00
     -2.262  0.1323E+00  0.7142E+00
     -2.151  0.1392E+00  0.7297E+00
     -2.039  0.1437E+00  0.7457E+00
     -1.928  0.1392E+00  0.7612E+00
     -1.816  0.1209E+00  0.7747E+00
     -1.705  0.1502E+00  0.7915E+00
     -1.593  0.1297E+00  0.8059E+00
     -1.482  0.1526E+00  0.8229E+00
     -1.370  0.1529E+00  0.8400E+00
     -1.259  0.1439E+00  0.8560E+00
     -1.147  0.1516E+00  0.8729E+00
     -1.036  0.1348E+00  0.8880E+00
     -0.924  0.1669E+00  0.9066E+00
     -0.813  0.1491E+00  0.9232E+00
     -0.701  0.1511E+00  0.9400E+00
     -0.590  0.1554E+00  0.9574E+00
     -0.478  0.1750E+00  0.9769E+00
     -0.367  0.1594E+00  0.9946E+00
     -0.255  0.1620E+00  0.1013E+01
     -0.144  0.1631E+00  0.1031E+01
     -0.032  0.1486E+00  0.1047E+01
      0.079  0.1502E+00  0.1064E+01
      0.191  0.1597E+00  0.1082E+01
      0.302  0.1248E+00  0.1096E+01
      0.414  0.1486E+00  0.1112E+01
      0.525  0.1408E+00  0.1128E+01
      0.637  0.1382E+00  0.1144E+01
      0.748  0.1489E+00  0.1160E+01
      0.860  0.1307E+00  0.1175E+01
      0.971  0.1188E+00  0.1188E+01
      1.083  0.1138E+00  0.1201E+01
      1.194  0.1039E+00  0.1212E+01
      1.306  0.9310E-01  0.1223E+01
      1.417  0.8261E-01  0.1232E+01
      1.529  0.9007E-01  0.1242E+01
      1.640  0.1022E+00  0.1253E+01
      1.752  0.8364E-01  0.1263E+01
      1.863  0.4558E-01  0.1268E+01
      1.975  0.4576E-01  0.1273E+01
      2.086  0.5427E-01  0.1279E+01
      2.198  0.4405E-01  0.1284E+01
      2.309  0.2523E-01  0.1287E+01
      2.421  0.3260E-01  0.1290E+01
      2.532  0.1577E-01  0.1292E+01
      2.644  0.7532E-02  0.1293E+01
      2.755  0.1271E-01  0.1294E+01
      2.867  0.1532E-01  0.1296E+01
      2.978  0.4065E-03  0.1296E+01
      3.090  0.2273E-08  0.1296E+01
      3.201  0.0000E+00  0.1296E+01
      3.313  0.0000E+00  0.1296E+01
      3.424  0.0000E+00  0.1296E+01
      3.536  0.0000E+00  0.1296E+01
      3.647  0.0000E+00  0.1296E+01
      3.759  0.0000E+00  0.1296E+01
      3.870  0.0000E+00  0.1296E+01
      3.982  0.4220E-10  0.1296E+01
      4.093  0.6150E-04  0.1296E+01
      4.205  0.1202E-01  0.1297E+01
      4.316  0.6113E-02  0.1298E+01
      4.428  0.1471E-01  0.1300E+01
      4.539  0.2973E-02  0.1300E+01
      4.651  0.3330E-06  0.1300E+01
      4.762  0.1302E-07  0.1300E+01
      4.874  0.8616E-03  0.1300E+01
      4.985  0.1585E-01  0.1302E+01
      5.097  0.1224E-02  0.1302E+01
      5.208  0.2696E-02  0.1302E+01
      5.320  0.1506E-01  0.1304E+01
      5.431  0.1375E-01  0.1306E+01
      5.542  0.7383E-02  0.1306E+01
      5.654  0.1719E-01  0.1308E+01
      5.765  0.1905E-01  0.1310E+01
      5.877  0.1474E-01  0.1312E+01
      5.988  0.1558E-01  0.1314E+01
      6.100  0.1916E-01  0.1316E+01
      6.211  0.2034E-01  0.1318E+01
      6.323  0.3078E-01  0.1322E+01
      6.434  0.3382E-01  0.1325E+01
      6.546  0.2012E-01  0.1328E+01
      6.657  0.2978E-01  0.1331E+01
      6.769  0.4225E-01  0.1336E+01
      6.880  0.5584E-01  0.1342E+01
      6.992  0.4797E-01  0.1347E+01
      7.103  0.4019E-01  0.1352E+01
      7.215  0.2498E-01  0.1354E+01
      7.326  0.3231E-01  0.1358E+01
      7.438  0.3568E-01  0.1362E+01
      7.549  0.2983E-01  0.1365E+01
      7.661  0.7015E-01  0.1373E+01
      7.772  0.5609E-01  0.1379E+01
      7.884  0.4445E-01  0.1384E+01
      7.995  0.5708E-01  0.1391E+01
      8.107  0.5632E-01  0.1397E+01
      8.218  0.4239E-01  0.1402E+01
      8.330  0.6610E-01  0.1409E+01
      8.441  0.4697E-01  0.1414E+01
      8.553  0.5922E-01  0.1421E+01
      8.664  0.6400E-01  0.1428E+01
      8.776  0.5035E-01  0.1434E+01
      8.887  0.5990E-01  0.1440E+01
      8.999  0.7500E-01  0.1449E+01
      9.110  0.6609E-01  0.1456E+01
      9.222  0.7155E-01  0.1464E+01
      9.333  0.7721E-01  0.1473E+01
      9.445  0.6834E-01  0.1480E+01
      9.556  0.8839E-01  0.1490E+01
      9.668  0.7832E-01  0.1499E+01
      9.779  0.8434E-01  0.1508E+01
      9.891  0.9437E-01  0.1519E+01
     10.002  0.8813E-01  0.1529E+01
     10.114  0.7927E-01  0.1538E+01
     10.225  0.6943E-01  0.1545E+01
     10.337  0.8262E-01  0.1554E+01
     10.448  0.8586E-01  0.1564E+01
     10.560  0.3484E-01  0.1568E+01
     10.671  0.4466E-03  0.1568E+01
     10.783  0.2230E-08  0.1568E+01
     10.894  0.0000E+00  0.1568E+01
     11.006  0.0000E+00  0.1568E+01
     11.117  0.0000E+00  0.1568E+01
     11.229  0.0000E+00  0.1568E+01
     11.340  0.0000E+00  0.1568E+01
     11.452  0.0000E+00  0.1568E+01
     11.563  0.0000E+00  0.1568E+01
     11.675  0.0000E+00  0.1568E+01
     11.786  0.0000E+00  0.1568E+01
     11.898  0.0000E+00  0.1568E+01
     12.009  0.0000E+00  0.1568E+01
