  243  243 1000    1
  0.1311304E+02  0.1499160E-08  0.1499160E-08  0.1637130E-08  0.5000000E-15
   4000.00000000000     
  CAR 
 (Si O2)81  (P1) ~ 3x3x3Supersel (VASP)  
   1296      1    784
 
  0.0000000E+00  0.0000000E+00  0.0000000E+00  0.1000000E+01
    1      -19.918939
    2      -19.637248
    3      -19.514123
    4      -19.341980
    5      -19.225128
    6      -19.128393
    7      -19.026129
    8      -18.895879
    9      -18.823081
   10      -18.794527
   11      -18.750979
   12      -18.651871
   13      -18.614866
   14      -18.597415
   15      -18.544559
   16      -18.541048
   17      -18.513069
   18      -18.482950
   19      -18.430524
   20      -18.382936
   21      -18.352543
   22      -18.326487
   23      -18.267964
   24      -18.231559
   25      -18.198231
   26      -18.145027
   27      -18.142334
   28      -18.097878
   29      -18.034792
   30      -18.011115
   31      -18.001953
   32      -17.989822
   33      -17.956988
   34      -17.922017
   35      -17.889894
   36      -17.859635
   37      -17.822380
   38      -17.795715
   39      -17.769962
   40      -17.749360
   41      -17.704641
   42      -17.685627
   43      -17.636274
   44      -17.584764
   45      -17.580711
   46      -17.530665
   47      -17.522462
   48      -17.493910
   49      -17.484228
   50      -17.470768
   51      -17.444948
   52      -17.405405
   53      -17.397760
   54      -17.345309
   55      -17.294907
   56      -17.288769
   57      -17.263868
   58      -17.231165
   59      -17.220589
   60      -17.205059
   61      -17.184433
   62      -17.162666
   63      -17.148239
   64      -17.092657
   65      -17.086359
   66      -17.066757
   67      -17.010186
   68      -16.981723
   69      -16.973203
   70      -16.949668
   71      -16.916654
   72      -16.912271
   73      -16.895124
   74      -16.880809
   75      -16.848467
   76      -16.813217
   77      -16.797682
   78      -16.763876
   79      -16.738556
   80      -16.704071
   81      -16.661115
   82      -16.651633
   83      -16.642906
   84      -16.630782
   85      -16.614999
   86      -16.603102
   87      -16.568997
   88      -16.528683
   89      -16.507969
   90      -16.461691
   91      -16.441210
   92      -16.420558
   93      -16.364362
   94      -16.340827
   95      -16.315645
   96      -16.281563
   97      -16.255504
   98      -16.233506
   99      -16.196766
  100      -16.156680
  101      -16.140612
  102      -16.122168
  103      -16.104743
  104      -16.098953
  105      -16.064695
  106      -16.053755
  107      -16.044059
  108      -16.023827
  109      -15.953997
  110      -15.929208
  111      -15.898424
  112      -15.892005
  113      -15.834957
  114      -15.815687
  115      -15.796133
  116      -15.774632
  117      -15.759605
  118      -15.743188
  119      -15.737455
  120      -15.728404
  121      -15.694228
  122      -15.685181
  123      -15.655353
  124      -15.646736
  125      -15.587622
  126      -15.579199
  127      -15.561468
  128      -15.548221
  129      -15.522416
  130      -15.490112
  131      -15.447088
  132      -15.428067
  133      -15.388928
  134      -15.357203
  135      -15.330643
  136      -15.310749
  137      -15.241319
  138      -15.240599
  139      -15.180116
  140      -15.148751
  141      -15.145644
  142      -15.101475
  143      -15.093905
  144      -15.030484
  145      -15.023599
  146      -15.014525
  147      -14.902562
  148      -14.798076
  149      -14.757259
  150      -14.716643
  151      -14.713705
  152      -14.678413
  153      -14.616597
  154      -14.528110
  155      -14.423780
  156      -14.380298
  157      -14.314461
  158      -14.203627
  159      -14.169300
  160      -14.031552
  161      -13.934292
  162      -13.735811
  163       -8.884519
  164       -8.861782
  165       -8.556953
  166       -8.331355
  167       -8.241438
  168       -8.159672
  169       -8.068153
  170       -8.028187
  171       -7.910956
  172       -7.796605
  173       -7.740167
  174       -7.690167
  175       -7.667393
  176       -7.641819
  177       -7.626648
  178       -7.501288
  179       -7.467580
  180       -7.436573
  181       -7.392002
  182       -7.355600
  183       -7.284323
  184       -7.195633
  185       -7.144107
  186       -7.068917
  187       -7.032753
  188       -7.014750
  189       -6.965529
  190       -6.904685
  191       -6.851488
  192       -6.804760
  193       -6.753923
  194       -6.708207
  195       -6.683554
  196       -6.607860
  197       -6.573158
  198       -6.532547
  199       -6.458317
  200       -6.439331
  201       -6.403102
  202       -6.291761
  203       -6.230705
  204       -6.216123
  205       -6.161351
  206       -6.135382
  207       -6.073169
  208       -6.054681
  209       -6.032268
  210       -5.897980
  211       -5.884737
  212       -5.855598
  213       -5.817522
  214       -5.791543
  215       -5.754320
  216       -5.715942
  217       -5.682123
  218       -5.646016
  219       -5.583347
  220       -5.533101
  221       -5.502513
  222       -5.485988
  223       -5.458033
  224       -5.449691
  225       -5.368473
  226       -5.349363
  227       -5.333834
  228       -5.288526
  229       -5.256603
  230       -5.223152
  231       -5.190201
  232       -5.157991
  233       -5.129743
  234       -5.087582
  235       -5.063984
  236       -5.036794
  237       -5.012775
  238       -4.973380
  239       -4.955117
  240       -4.906090
  241       -4.877759
  242       -4.863108
  243       -4.835757
  244       -4.825348
  245       -4.786857
  246       -4.732686
  247       -4.724212
  248       -4.701758
  249       -4.672832
  250       -4.642417
  251       -4.619295
  252       -4.581509
  253       -4.564775
  254       -4.542787
  255       -4.510599
  256       -4.474617
  257       -4.471330
  258       -4.428685
  259       -4.409751
  260       -4.400167
  261       -4.366134
  262       -4.341547
  263       -4.312845
  264       -4.285897
  265       -4.259474
  266       -4.238971
  267       -4.223155
  268       -4.202548
  269       -4.176990
  270       -4.162004
  271       -4.133313
  272       -4.119156
  273       -4.069907
  274       -4.049821
  275       -4.026132
  276       -4.013427
  277       -3.994916
  278       -3.947475
  279       -3.942065
  280       -3.927227
  281       -3.889182
  282       -3.872551
  283       -3.821416
  284       -3.816863
  285       -3.801966
  286       -3.761093
  287       -3.745267
  288       -3.713602
  289       -3.706279
  290       -3.683072
  291       -3.643846
  292       -3.633236
  293       -3.613921
  294       -3.595260
  295       -3.565884
  296       -3.547865
  297       -3.534946
  298       -3.513977
  299       -3.490648
  300       -3.467276
  301       -3.460504
  302       -3.403526
  303       -3.381155
  304       -3.373386
  305       -3.340216
  306       -3.330819
  307       -3.320559
  308       -3.260406
  309       -3.240944
  310       -3.170859
  311       -3.145986
  312       -3.138259
  313       -3.095836
  314       -3.071739
  315       -3.068697
  316       -3.037358
  317       -3.017588
  318       -3.006556
  319       -2.995326
  320       -2.980022
  321       -2.941850
  322       -2.932959
  323       -2.909585
  324       -2.900125
  325       -2.875044
  326       -2.857755
  327       -2.850900
  328       -2.825776
  329       -2.779588
  330       -2.756764
  331       -2.732993
  332       -2.709679
  333       -2.690023
  334       -2.647791
  335       -2.628968
  336       -2.590621
  337       -2.578909
  338       -2.566725
  339       -2.560988
  340       -2.533200
  341       -2.526524
  342       -2.516756
  343       -2.500173
  344       -2.458856
  345       -2.439528
  346       -2.429176
  347       -2.416747
  348       -2.404392
  349       -2.392747
  350       -2.387674
  351       -2.360981
  352       -2.349318
  353       -2.327215
  354       -2.307498
  355       -2.294059
  356       -2.292529
  357       -2.271864
  358       -2.257466
  359       -2.236795
  360       -2.228247
  361       -2.209159
  362       -2.203102
  363       -2.189786
  364       -2.184231
  365       -2.162592
  366       -2.127931
  367       -2.124762
  368       -2.103087
  369       -2.094663
  370       -2.071129
  371       -2.067080
  372       -2.060996
  373       -2.043077
  374       -2.034445
  375       -2.020531
  376       -2.005608
  377       -1.995263
  378       -1.975655
  379       -1.964264
  380       -1.961396
  381       -1.923401
  382       -1.915364
  383       -1.891976
  384       -1.874060
  385       -1.859522
  386       -1.846462
  387       -1.815618
  388       -1.812420
  389       -1.807699
  390       -1.786773
  391       -1.771034
  392       -1.755955
  393       -1.738892
  394       -1.731683
  395       -1.723973
  396       -1.718423
  397       -1.697543
  398       -1.680566
  399       -1.669666
  400       -1.633584
  401       -1.631050
  402       -1.617486
  403       -1.603983
  404       -1.574618
  405       -1.564346
  406       -1.557451
  407       -1.550917
  408       -1.542939
  409       -1.511521
  410       -1.503375
  411       -1.497186
  412       -1.482592
  413       -1.467804
  414       -1.464171
  415       -1.439447
  416       -1.423972
  417       -1.404910
  418       -1.397638
  419       -1.385475
  420       -1.382239
  421       -1.369177
  422       -1.359192
  423       -1.338479
  424       -1.322548
  425       -1.297020
  426       -1.279520
  427       -1.270537
  428       -1.263078
  429       -1.247405
  430       -1.244482
  431       -1.232839
  432       -1.228529
  433       -1.208102
  434       -1.206225
  435       -1.169193
  436       -1.160275
  437       -1.148118
  438       -1.133644
  439       -1.122708
  440       -1.086589
  441       -1.079279
  442       -1.072534
  443       -1.061144
  444       -1.041856
  445       -1.030163
  446       -1.011841
  447       -1.001917
  448       -0.985978
  449       -0.968571
  450       -0.955132
  451       -0.953202
  452       -0.938467
  453       -0.930955
  454       -0.926361
  455       -0.914300
  456       -0.910112
  457       -0.896340
  458       -0.873365
  459       -0.866913
  460       -0.842434
  461       -0.837329
  462       -0.805834
  463       -0.798819
  464       -0.786713
  465       -0.761575
  466       -0.752168
  467       -0.742030
  468       -0.734575
  469       -0.717374
  470       -0.716258
  471       -0.698612
  472       -0.677945
  473       -0.672845
  474       -0.654249
  475       -0.641203
  476       -0.630039
  477       -0.619376
  478       -0.603740
  479       -0.589413
  480       -0.575062
  481       -0.565994
  482       -0.561265
  483       -0.543010
  484       -0.526085
  485       -0.520155
  486       -0.513541
  487       -0.508649
  488       -0.489994
  489       -0.484302
  490       -0.461612
  491       -0.454045
  492       -0.440393
  493       -0.430292
  494       -0.415126
  495       -0.393148
  496       -0.389851
  497       -0.381166
  498       -0.368820
  499       -0.351697
  500       -0.338921
  501       -0.320708
  502       -0.315756
  503       -0.301785
  504       -0.287704
  505       -0.280483
  506       -0.266010
  507       -0.249852
  508       -0.246738
  509       -0.233930
  510       -0.207031
  511       -0.198392
  512       -0.197837
  513       -0.175206
  514       -0.167675
  515       -0.164180
  516       -0.151595
  517       -0.130817
  518       -0.115542
  519       -0.099289
  520       -0.086645
  521       -0.058996
  522       -0.054301
  523       -0.047391
  524       -0.039404
  525       -0.021287
  526       -0.015005
  527        0.000285
  528        0.006228
  529        0.024615
  530        0.047188
  531        0.066614
  532        0.071031
  533        0.082217
  534        0.092619
  535        0.120194
  536        0.123013
  537        0.132919
  538        0.149678
  539        0.163349
  540        0.172131
  541        0.183482
  542        0.196035
  543        0.197133
  544        0.221602
  545        0.241366
  546        0.259837
  547        0.277001
  548        0.297967
  549        0.317184
  550        0.330568
  551        0.341298
  552        0.356147
  553        0.365962
  554        0.369449
  555        0.392028
  556        0.394806
  557        0.415851
  558        0.434682
  559        0.448972
  560        0.460022
  561        0.468954
  562        0.491635
  563        0.501471
  564        0.514020
  565        0.530843
  566        0.541820
  567        0.558358
  568        0.585786
  569        0.601643
  570        0.615081
  571        0.620396
  572        0.628687
  573        0.650740
  574        0.654579
  575        0.666617
  576        0.676126
  577        0.696506
  578        0.716583
  579        0.721806
  580        0.736545
  581        0.753087
  582        0.763614
  583        0.792923
  584        0.802884
  585        0.814369
  586        0.827465
  587        0.838459
  588        0.863612
  589        0.879595
  590        0.892655
  591        0.908211
  592        0.935378
  593        0.953468
  594        0.967966
  595        0.977243
  596        0.986832
  597        1.011939
  598        1.021391
  599        1.045964
  600        1.053195
  601        1.099972
  602        1.106670
  603        1.122942
  604        1.138201
  605        1.154714
  606        1.181846
  607        1.202404
  608        1.228839
  609        1.232431
  610        1.277435
  611        1.289032
  612        1.311731
  613        1.316242
  614        1.357219
  615        1.390165
  616        1.413763
  617        1.416972
  618        1.462264
  619        1.472921
  620        1.506918
  621        1.523574
  622        1.527500
  623        1.572801
  624        1.579248
  625        1.588235
  626        1.604610
  627        1.643461
  628        1.657422
  629        1.680768
  630        1.701521
  631        1.719639
  632        1.747454
  633        1.807371
  634        1.859593
  635        1.879619
  636        1.919393
  637        1.991490
  638        2.011468
  639        2.062152
  640        2.090666
  641        2.111410
  642        2.159784
  643        2.258740
  644        2.322068
  645        2.383544
  646        2.442833
  647        2.651265
  648        2.795847
  649        4.188652
  650        4.393212
  651        4.932368
  652        5.244608
  653        5.406456
  654        5.576531
  655        5.692098
  656        5.794299
  657        5.949708
  658        6.065136
  659        6.143557
  660        6.257039
  661        6.294857
  662        6.387918
  663        6.408733
  664        6.518214
  665        6.620356
  666        6.650353
  667        6.724132
  668        6.770284
  669        6.782221
  670        6.820415
  671        6.851411
  672        6.917458
  673        6.943888
  674        6.983952
  675        7.034512
  676        7.079756
  677        7.144365
  678        7.240399
  679        7.283722
  680        7.363763
  681        7.402809
  682        7.466790
  683        7.564948
  684        7.571879
  685        7.595584
  686        7.635011
  687        7.639615
  688        7.699040
  689        7.750122
  690        7.756309
  691        7.787888
  692        7.859889
  693        7.889698
  694        7.960920
  695        7.966054
  696        7.999668
  697        8.017923
  698        8.055522
  699        8.101010
  700        8.167778
  701        8.213117
  702        8.235284
  703        8.267376
  704        8.301851
  705        8.320751
  706        8.356252
  707        8.422084
  708        8.448519
  709        8.493754
  710        8.528533
  711        8.545811
  712        8.584264
  713        8.624373
  714        8.645590
  715        8.672264
  716        8.713928
  717        8.743040
  718        8.828616
  719        8.847590
  720        8.879636
  721        8.888056
  722        8.912509
  723        8.944973
  724        8.958125
  725        9.008368
  726        9.034381
  727        9.062487
  728        9.095155
  729        9.118838
  730        9.159155
  731        9.185915
  732        9.189821
  733        9.239944
  734        9.269863
  735        9.282412
  736        9.307843
  737        9.323622
  738        9.381420
  739        9.406302
  740        9.420263
  741        9.458050
  742        9.474948
  743        9.513218
  744        9.521464
  745        9.534901
  746        9.558047
  747        9.594664
  748        9.619145
  749        9.642388
  750        9.654588
  751        9.714462
  752        9.722656
  753        9.746760
  754        9.771356
  755        9.782343
  756        9.801160
  757        9.825798
  758        9.853670
  759        9.866885
  760        9.887207
  761        9.916703
  762        9.941149
  763        9.963121
  764        9.990166
  765       10.002788
  766       10.024022
  767       10.046158
  768       10.070090
  769       10.113289
  770       10.127298
  771       10.173337
  772       10.204940
  773       10.206914
  774       10.260364
  775       10.265886
  776       10.309612
  777       10.320644
  778       10.341366
  779       10.360737
  780       10.384037
  781       10.399849
  782       10.433525
  783       10.459730
  784       10.488829
