       N       E                     dE             d eps       ncg     rms          rms(c)
DAV:   1     0.783223577491E+04    0.78322E+04   -0.59087E+05  1584   0.124E+03
DAV:   2    -0.132945643023E+04   -0.91617E+04   -0.89244E+04  1864   0.325E+02
DAV:   3    -0.204629608290E+04   -0.71684E+03   -0.71088E+03  1816   0.979E+01
DAV:   4    -0.206128941229E+04   -0.14993E+02   -0.14927E+02  1880   0.144E+01
DAV:   5    -0.206164331386E+04   -0.35390E+00   -0.35324E+00  1808   0.205E+00    0.125E+02
RMM:   6    -0.179418511399E+04    0.26746E+03   -0.11278E+03  1568   0.327E+01    0.500E+01
RMM:   7    -0.179069297124E+04    0.34921E+01   -0.45444E+01  1588   0.566E+00    0.259E+01
RMM:   8    -0.178948854369E+04    0.12044E+01   -0.10195E+01  1568   0.409E+00    0.415E+00
RMM:   9    -0.178933214078E+04    0.15640E+00   -0.12609E+00  1568   0.102E+00    0.161E+00
RMM:  10    -0.178939779309E+04   -0.65652E-01   -0.46344E-01  1596   0.580E-01    0.115E+00
RMM:  11    -0.178940293502E+04   -0.51419E-02   -0.10187E-01  1568   0.331E-01    0.257E-01
RMM:  12    -0.178940393872E+04   -0.10037E-02   -0.11113E-02  1588   0.929E-02    0.140E-01
RMM:  13    -0.178940404709E+04   -0.10837E-03   -0.57603E-03  1573   0.596E-02    0.818E-02
RMM:  14    -0.178940399911E+04    0.47982E-04   -0.16331E-03  1431   0.356E-02    0.327E-02
RMM:  15    -0.178940399220E+04    0.69126E-05   -0.26593E-04  1031   0.133E-02
    1 T=  3998. E= -.16643453E+04 F= -.17894040E+04 E0= -.17894040E+04  EK= 0.12506E+03 SP= 0.00E+00 SK= 0.11E-06
       N       E                     dE             d eps       ncg     rms          rms(c)
DAV:   1    -0.178921191182E+04    0.19209E+00   -0.15290E+02  1680   0.168E+01    0.418E+00
RMM:   2    -0.178952981993E+04   -0.31791E+00   -0.39085E+00  1568   0.238E+00    0.139E+00
RMM:   3    -0.178947812648E+04    0.51693E-01   -0.10548E-01  1576   0.360E-01    0.795E-01
RMM:   4    -0.178946283577E+04    0.15291E-01   -0.77166E-02  1568   0.261E-01    0.188E-01
RMM:   5    -0.178946226960E+04    0.56617E-03   -0.33788E-03  1590   0.509E-02    0.942E-02
RMM:   6    -0.178946213689E+04    0.13271E-03   -0.61943E-04  1331   0.208E-02    0.406E-02
RMM:   7    -0.178946208720E+04    0.49685E-04   -0.22969E-04   968   0.142E-02
    2 T=  4000. E= -.16643444E+04 F= -.17894621E+04 E0= -.17894621E+04  EK= 0.12512E+03 SP= -.16E-02 SK= 0.46E-06
       N       E                     dE             d eps       ncg     rms          rms(c)
DAV:   1    -0.178943509691E+04    0.27040E-01   -0.75340E-01  1848   0.367E+00    0.674E-01
RMM:   2    -0.178950069068E+04   -0.65594E-01   -0.69759E-01  1568   0.993E-01    0.472E-01
RMM:   3    -0.178949514187E+04    0.55488E-02   -0.10840E-02  1674   0.966E-02    0.334E-01
RMM:   4    -0.178949373719E+04    0.14047E-02   -0.55762E-03  1567   0.713E-02    0.142E-01
RMM:   5    -0.178949373825E+04   -0.10619E-05   -0.23111E-04   940   0.160E-02
    3 T=  4001. E= -.16643420E+04 F= -.17894937E+04 E0= -.17894937E+04  EK= 0.12516E+03 SP= -.34E-02 SK= 0.30E-06
       N       E                     dE             d eps       ncg     rms          rms(c)
DAV:   1    -0.178951169301E+04   -0.17956E-01   -0.26963E-01  2744   0.325E+00    0.218E-01
RMM:   2    -0.178952906361E+04   -0.17371E-01   -0.17944E-01  1568   0.429E-01    0.127E-01
RMM:   3    -0.178952917587E+04   -0.11226E-03   -0.72823E-03  1780   0.692E-02    0.949E-02
RMM:   4    -0.178952906991E+04    0.10596E-03   -0.49668E-04  1195   0.196E-02    0.564E-02
RMM:   5    -0.178952905332E+04    0.16589E-04   -0.75963E-05   920   0.841E-03
    4 T=  4002. E= -.16643407E+04 F= -.17895291E+04 E0= -.17895291E+04  EK= 0.12519E+03 SP= -.44E-02 SK= 0.36E-08
       N       E                     dE             d eps       ncg     rms          rms(c)
DAV:   1    -0.178958431437E+04   -0.55244E-01   -0.95599E-02  2984   0.324E+00    0.174E-01
RMM:   2    -0.178959504429E+04   -0.10730E-01   -0.11252E-01  1569   0.337E-01    0.924E-02
RMM:   3    -0.178959528148E+04   -0.23720E-03   -0.53651E-03  1775   0.553E-02    0.656E-02
RMM:   4    -0.178959521127E+04    0.70212E-04   -0.29929E-04  1076   0.159E-02
    5 T=  4004. E= -.16643414E+04 F= -.17895952E+04 E0= -.17895952E+04  EK= 0.12526E+03 SP= -.37E-02 SK= 0.88E-06
       N       E                     dE             d eps       ncg     rms          rms(c)
DAV:   1    -0.178970201003E+04   -0.10673E+00   -0.92096E-02  2872   0.322E+00    0.123E-01
RMM:   2    -0.178971340444E+04   -0.11394E-01   -0.11668E-01  1568   0.346E-01    0.111E-01
RMM:   3    -0.178971360340E+04   -0.19896E-03   -0.52407E-03  1767   0.561E-02    0.901E-02
RMM:   4    -0.178971350911E+04    0.94296E-04   -0.31591E-04  1090   0.156E-02
    6 T=  4008. E= -.16643436E+04 F= -.17897135E+04 E0= -.17897135E+04  EK= 0.12537E+03 SP= 0.31E-03 SK= 0.79E-05
       N       E                     dE             d eps       ncg     rms          rms(c)
DAV:   1    -0.178988469735E+04   -0.17109E+00   -0.87187E-02  2848   0.320E+00    0.114E-01
RMM:   2    -0.178989437862E+04   -0.96813E-02   -0.98446E-02  1568   0.317E-01    0.945E-02
RMM:   3    -0.178989464609E+04   -0.26747E-03   -0.48721E-03  1764   0.528E-02    0.752E-02
RMM:   4    -0.178989459854E+04    0.47549E-04   -0.30636E-04  1064   0.160E-02
    7 T=  4013. E= -.16643473E+04 F= -.17898946E+04 E0= -.17898946E+04  EK= 0.12554E+03 SP= 0.10E-01 SK= 0.37E-04
       N       E                     dE             d eps       ncg     rms          rms(c)
DAV:   1    -0.179012475890E+04   -0.23011E+00   -0.94073E-02  2840   0.320E+00    0.163E-01
RMM:   2    -0.179013538643E+04   -0.10628E-01   -0.11152E-01  1568   0.334E-01    0.867E-02
RMM:   3    -0.179013562844E+04   -0.24201E-03   -0.51162E-03  1787   0.549E-02    0.603E-02
RMM:   4    -0.179013557767E+04    0.50777E-04   -0.28332E-04  1060   0.151E-02
    8 T=  4020. E= -.16643511E+04 F= -.17901356E+04 E0= -.17901356E+04  EK= 0.12575E+03 SP= 0.31E-01 SK= 0.13E-03
       N       E                     dE             d eps       ncg     rms          rms(c)
DAV:   1    -0.179041226598E+04   -0.27664E+00   -0.69431E-02  2880   0.321E+00    0.949E-02
RMM:   2    -0.179042218431E+04   -0.99183E-02   -0.99873E-02  1568   0.310E-01    0.851E-02
RMM:   3    -0.179042249728E+04   -0.31297E-03   -0.52148E-03  1773   0.530E-02    0.697E-02
RMM:   4    -0.179042244356E+04    0.53713E-04   -0.22692E-04  1029   0.134E-02
    9 T=  4028. E= -.16643563E+04 F= -.17904224E+04 E0= -.17904224E+04  EK= 0.12600E+03 SP= 0.66E-01 SK= 0.35E-03
       N       E                     dE             d eps       ncg     rms          rms(c)
DAV:   1    -0.179072077381E+04   -0.29828E+00   -0.80923E-02  2864   0.320E+00    0.113E-01
RMM:   2    -0.179073051383E+04   -0.97400E-02   -0.98953E-02  1568   0.312E-01    0.856E-02
RMM:   3    -0.179073081103E+04   -0.29720E-03   -0.50454E-03  1785   0.530E-02    0.671E-02
RMM:   4    -0.179073076435E+04    0.46678E-04   -0.26403E-04  1052   0.145E-02
   10 T=  4036. E= -.16643619E+04 F= -.17907308E+04 E0= -.17907308E+04  EK= 0.12624E+03 SP= 0.12E+00 SK= 0.82E-03
       N       E                     dE             d eps       ncg     rms          rms(c)
DAV:   1    -0.179102052226E+04   -0.28971E+00   -0.78229E-02  2872   0.320E+00    0.138E-01
RMM:   2    -0.179102985512E+04   -0.93329E-02   -0.96744E-02  1568   0.311E-01    0.779E-02
RMM:   3    -0.179103013039E+04   -0.27527E-03   -0.48004E-03  1764   0.521E-02    0.566E-02
RMM:   4    -0.179103008961E+04    0.40775E-04   -0.25193E-04  1042   0.142E-02
   11 T=  4042. E= -.16643669E+04 F= -.17910301E+04 E0= -.17910301E+04  EK= 0.12645E+03 SP= 0.21E+00 SK= 0.17E-02
       N       E                     dE             d eps       ncg     rms          rms(c)
DAV:   1    -0.179127992261E+04   -0.24979E+00   -0.89125E-02  2848   0.320E+00    0.106E-01
RMM:   2    -0.179128977457E+04   -0.98520E-02   -0.99703E-02  1568   0.316E-01    0.916E-02
RMM:   3    -0.179129002392E+04   -0.24935E-03   -0.48732E-03  1756   0.528E-02    0.738E-02
RMM:   4    -0.179128996159E+04    0.62324E-04   -0.26133E-04  1051   0.144E-02
   12 T=  4047. E= -.16643711E+04 F= -.17912900E+04 E0= -.17912900E+04  EK= 0.12659E+03 SP= 0.33E+00 SK= 0.30E-02
       N       E                     dE             d eps       ncg     rms          rms(c)
DAV:   1    -0.179147578940E+04   -0.18577E+00   -0.88859E-02  2888   0.319E+00    0.111E-01
RMM:   2    -0.179148544626E+04   -0.96569E-02   -0.98049E-02  1568   0.313E-01    0.893E-02
RMM:   3    -0.179148573953E+04   -0.29328E-03   -0.49833E-03  1773   0.529E-02    0.705E-02
RMM:   4    -0.179148569174E+04    0.47789E-04   -0.28254E-04  1059   0.152E-02
   13 T=  4048. E= -.16643743E+04 F= -.17914857E+04 E0= -.17914857E+04  EK= 0.12663E+03 SP= 0.48E+00 SK= 0.48E-02
       N       E                     dE             d eps       ncg     rms          rms(c)
DAV:   1    -0.179159098727E+04   -0.10525E+00   -0.83972E-02  2848   0.319E+00    0.144E-01
RMM:   2    -0.179160081562E+04   -0.98284E-02   -0.10223E-01  1568   0.317E-01    0.843E-02
RMM:   3    -0.179160111640E+04   -0.30077E-03   -0.52019E-03  1771   0.538E-02    0.603E-02
RMM:   4    -0.179160107159E+04    0.44811E-04   -0.28364E-04  1057   0.151E-02
   14 T=  4045. E= -.16643755E+04 F= -.17916011E+04 E0= -.17916011E+04  EK= 0.12655E+03 SP= 0.67E+00 SK= 0.70E-02
       N       E                     dE             d eps       ncg     rms          rms(c)
DAV:   1    -0.179162140099E+04   -0.20285E-01   -0.77207E-02  2880   0.319E+00    0.106E-01
RMM:   2    -0.179163092282E+04   -0.95218E-02   -0.96570E-02  1568   0.309E-01    0.876E-02
RMM:   3    -0.179163122133E+04   -0.29851E-03   -0.51106E-03  1771   0.527E-02    0.694E-02
RMM:   4    -0.179163116266E+04    0.58673E-04   -0.25013E-04  1031   0.141E-02
   15 T=  4039. E= -.16643755E+04 F= -.17916312E+04 E0= -.17916312E+04  EK= 0.12635E+03 SP= 0.90E+00 SK= 0.94E-02
       N       E                     dE             d eps       ncg     rms          rms(c)
DAV:   1    -0.179157132214E+04    0.59899E-01   -0.87927E-02  2856   0.318E+00    0.109E-01
RMM:   2    -0.179158087249E+04   -0.95504E-02   -0.97014E-02  1568   0.310E-01    0.891E-02
RMM:   3    -0.179158117492E+04   -0.30243E-03   -0.50846E-03  1769   0.529E-02    0.702E-02
RMM:   4    -0.179158112099E+04    0.53933E-04   -0.27134E-04  1042   0.150E-02
   16 T=  4029. E= -.16643742E+04 F= -.17915811E+04 E0= -.17915811E+04  EK= 0.12604E+03 SP= 0.12E+01 SK= 0.12E-01
       N       E                     dE             d eps       ncg     rms          rms(c)
DAV:   1    -0.179145740075E+04    0.12377E+00   -0.87606E-02  2808   0.318E+00    0.137E-01
RMM:   2    -0.179146706079E+04   -0.96600E-02   -0.10019E-01  1568   0.313E-01    0.827E-02
RMM:   3    -0.179146737308E+04   -0.31229E-03   -0.52135E-03  1775   0.537E-02    0.599E-02
RMM:   4    -0.179146732595E+04    0.47131E-04   -0.27637E-04  1049   0.150E-02
   17 T=  4017. E= -.16643723E+04 F= -.17914673E+04 E0= -.17914673E+04  EK= 0.12565E+03 SP= 0.14E+01 SK= 0.13E-01
       N       E                     dE             d eps       ncg     rms          rms(c)
DAV:   1    -0.179130134271E+04    0.16603E+00   -0.89554E-02  2848   0.318E+00    0.107E-01
RMM:   2    -0.179131112663E+04   -0.97839E-02   -0.99416E-02  1568   0.312E-01    0.887E-02
RMM:   3    -0.179131142674E+04   -0.30012E-03   -0.52165E-03  1774   0.535E-02    0.707E-02
RMM:   4    -0.179131136549E+04    0.61252E-04   -0.24639E-04  1032   0.140E-02
   18 T=  4003. E= -.16643696E+04 F= -.17913114E+04 E0= -.17913114E+04  EK= 0.12520E+03 SP= 0.17E+01 SK= 0.14E-01
       N       E                     dE             d eps       ncg     rms          rms(c)
DAV:   1    -0.179112877992E+04    0.18265E+00   -0.94314E-02  2864   0.317E+00    0.100E-01
RMM:   2    -0.179113853457E+04   -0.97547E-02   -0.98656E-02  1568   0.309E-01    0.870E-02
RMM:   3    -0.179113886796E+04   -0.33340E-03   -0.53348E-03  1781   0.539E-02    0.709E-02
RMM:   4    -0.179113881526E+04    0.52702E-04   -0.25458E-04  1035   0.143E-02
   19 T=  3988. E= -.16643668E+04 F= -.17911388E+04 E0= -.17911388E+04  EK= 0.12474E+03 SP= 0.20E+01 SK= 0.14E-01
       N       E                     dE             d eps       ncg     rms          rms(c)
DAV:   1    -0.179096578915E+04    0.17308E+00   -0.10392E-01  2824   0.316E+00    0.138E-01
RMM:   2    -0.179097613626E+04   -0.10347E-01   -0.10706E-01  1568   0.319E-01    0.818E-02
RMM:   3    -0.179097648322E+04   -0.34696E-03   -0.56316E-03  1788   0.556E-02    0.603E-02
RMM:   4    -0.179097643806E+04    0.45155E-04   -0.26945E-04  1048   0.147E-02
   20 T=  3974. E= -.16643637E+04 F= -.17909764E+04 E0= -.17909764E+04  EK= 0.12430E+03 SP= 0.23E+01 SK= 0.12E-01
       N       E                     dE             d eps       ncg     rms          rms(c)
DAV:   1    -0.179083943291E+04    0.13705E+00   -0.89004E-02  2864   0.317E+00    0.103E-01
RMM:   2    -0.179084925007E+04   -0.98172E-02   -0.99610E-02  1568   0.308E-01    0.823E-02
RMM:   3    -0.179084958835E+04   -0.33828E-03   -0.54369E-03  1765   0.538E-02    0.664E-02
RMM:   4    -0.179084953654E+04    0.51812E-04   -0.21788E-04  1005   0.131E-02
   21 T=  3961. E= -.16643617E+04 F= -.17908495E+04 E0= -.17908495E+04  EK= 0.12391E+03 SP= 0.26E+01 SK= 0.10E-01
       N       E                     dE             d eps       ncg     rms          rms(c)
DAV:   1    -0.179076753239E+04    0.82056E-01   -0.91203E-02  2864   0.316E+00    0.986E-02
RMM:   2    -0.179077682663E+04   -0.92942E-02   -0.93964E-02  1568   0.302E-01    0.808E-02
RMM:   3    -0.179077715040E+04   -0.32377E-03   -0.50789E-03  1769   0.527E-02    0.660E-02
RMM:   4    -0.179077710331E+04    0.47087E-04   -0.23108E-04  1025   0.137E-02
   22 T=  3952. E= -.16643607E+04 F= -.17907771E+04 E0= -.17907771E+04  EK= 0.12361E+03 SP= 0.28E+01 SK= 0.75E-02
       N       E                     dE             d eps       ncg     rms          rms(c)
DAV:   1    -0.179076300291E+04    0.14147E-01   -0.76479E-02  2896   0.316E+00    0.123E-01
RMM:   2    -0.179077174917E+04   -0.87463E-02   -0.90293E-02  1568   0.297E-01    0.738E-02
RMM:   3    -0.179077206599E+04   -0.31681E-03   -0.49015E-03  1771   0.514E-02    0.550E-02
RMM:   4    -0.179077202684E+04    0.39153E-04   -0.21650E-04  1005   0.134E-02
   23 T=  3945. E= -.16643609E+04 F= -.17907720E+04 E0= -.17907720E+04  EK= 0.12341E+03 SP= 0.30E+01 SK= 0.50E-02
       N       E                     dE             d eps       ncg     rms          rms(c)
DAV:   1    -0.179082842628E+04   -0.56360E-01   -0.82747E-02  2824   0.316E+00    0.105E-01
RMM:   2    -0.179083743116E+04   -0.90049E-02   -0.91533E-02  1568   0.300E-01    0.768E-02
RMM:   3    -0.179083772501E+04   -0.29385E-03   -0.48120E-03  1772   0.517E-02    0.609E-02
RMM:   4    -0.179083768029E+04    0.44718E-04   -0.20995E-04  1003   0.129E-02
   24 T=  3942. E= -.16643624E+04 F= -.17908377E+04 E0= -.17908377E+04  EK= 0.12332E+03 SP= 0.32E+01 SK= 0.28E-02
       N       E                     dE             d eps       ncg     rms          rms(c)
DAV:   1    -0.179096004862E+04   -0.12232E+00   -0.91650E-02  2840   0.316E+00    0.965E-02
RMM:   2    -0.179096919386E+04   -0.91452E-02   -0.92457E-02  1568   0.302E-01    0.799E-02
RMM:   3    -0.179096949514E+04   -0.30128E-03   -0.48158E-03  1784   0.519E-02    0.652E-02
RMM:   4    -0.179096944990E+04    0.45247E-04   -0.21842E-04  1006   0.133E-02
   25 T=  3943. E= -.16643648E+04 F= -.17909694E+04 E0= -.17909694E+04  EK= 0.12334E+03 SP= 0.33E+01 SK= 0.12E-02
       N       E                     dE             d eps       ncg     rms          rms(c)
DAV:   1    -0.179114582971E+04   -0.17633E+00   -0.11465E-01  2800   0.317E+00    0.129E-01
RMM:   2    -0.179115603023E+04   -0.10201E-01   -0.10471E-01  1568   0.318E-01    0.789E-02
RMM:   3    -0.179115634718E+04   -0.31695E-03   -0.51516E-03  1786   0.545E-02    0.596E-02
RMM:   4    -0.179115630808E+04    0.39105E-04   -0.24282E-04  1027   0.141E-02
   26 T=  3947. E= -.16643681E+04 F= -.17911563E+04 E0= -.17911563E+04  EK= 0.12346E+03 SP= 0.33E+01 SK= 0.33E-03
       N       E                     dE             d eps       ncg     rms          rms(c)
DAV:   1    -0.179136981981E+04   -0.21347E+00   -0.11592E-01  2776   0.318E+00    0.115E-01
RMM:   2    -0.179138054493E+04   -0.10725E-01   -0.10915E-01  1568   0.323E-01    0.862E-02
RMM:   3    -0.179138086031E+04   -0.31538E-03   -0.53868E-03  1787   0.556E-02    0.685E-02
RMM:   4    -0.179138080821E+04    0.52105E-04   -0.23718E-04  1029   0.138E-02
   27 T=  3953. E= -.16643720E+04 F= -.17913808E+04 E0= -.17913808E+04  EK= 0.12366E+03 SP= 0.34E+01 SK= 0.72E-05
       N       E                     dE             d eps       ncg     rms          rms(c)
DAV:   1    -0.179161119860E+04   -0.23034E+00   -0.91182E-02  2800   0.319E+00    0.942E-02
RMM:   2    -0.179162137039E+04   -0.10172E-01   -0.10260E-01  1568   0.311E-01    0.879E-02
RMM:   3    -0.179162171900E+04   -0.34862E-03   -0.54413E-03  1790   0.546E-02    0.728E-02
RMM:   4    -0.179162166523E+04    0.53772E-04   -0.24005E-04  1022   0.139E-02
   28 T=  3961. E= -.16643766E+04 F= -.17916217E+04 E0= -.17916217E+04  EK= 0.12390E+03 SP= 0.33E+01 SK= 0.11E-03
       N       E                     dE             d eps       ncg     rms          rms(c)
DAV:   1    -0.179184784450E+04   -0.22613E+00   -0.10040E-01  2792   0.319E+00    0.134E-01
RMM:   2    -0.179185778273E+04   -0.99382E-02   -0.10239E-01  1568   0.315E-01    0.826E-02
RMM:   3    -0.179185809932E+04   -0.31660E-03   -0.51796E-03  1793   0.541E-02    0.609E-02
RMM:   4    -0.179185805884E+04    0.40482E-04   -0.26399E-04  1047   0.148E-02
   29 T=  3970. E= -.16643812E+04 F= -.17918581E+04 E0= -.17918581E+04  EK= 0.12418E+03 SP= 0.33E+01 SK= 0.46E-03
       N       E                     dE             d eps       ncg     rms          rms(c)
DAV:   1    -0.179206034685E+04   -0.20225E+00   -0.11058E-01  2792   0.320E+00    0.124E-01
RMM:   2    -0.179207063902E+04   -0.10292E-01   -0.10542E-01  1568   0.321E-01    0.858E-02
RMM:   3    -0.179207093070E+04   -0.29167E-03   -0.52036E-03  1793   0.544E-02    0.652E-02
RMM:   4    -0.179207087934E+04    0.51359E-04   -0.23906E-04  1020   0.140E-02
   30 T=  3978. E= -.16643851E+04 F= -.17920709E+04 E0= -.17920709E+04  EK= 0.12445E+03 SP= 0.32E+01 SK= 0.87E-03
       N       E                     dE             d eps       ncg     rms          rms(c)
DAV:   1    -0.179223501077E+04   -0.16408E+00   -0.94446E-02  2816   0.321E+00    0.928E-02
RMM:   2    -0.179224485981E+04   -0.98490E-02   -0.99219E-02  1568   0.312E-01    0.903E-02
RMM:   3    -0.179224517757E+04   -0.31776E-03   -0.51694E-03  1793   0.535E-02    0.753E-02
RMM:   4    -0.179224512132E+04    0.56255E-04   -0.23411E-04  1020   0.138E-02
   31 T=  3987. E= -.16643893E+04 F= -.17922451E+04 E0= -.17922451E+04  EK= 0.12470E+03 SP= 0.32E+01 SK= 0.12E-02
       N       E                     dE             d eps       ncg     rms          rms(c)
DAV:   1    -0.179235861469E+04   -0.11344E+00   -0.86530E-02  2856   0.321E+00    0.128E-01
RMM:   2    -0.179236853625E+04   -0.99216E-02   -0.10183E-01  1568   0.313E-01    0.855E-02
RMM:   3    -0.179236887679E+04   -0.34054E-03   -0.53749E-03  1787   0.543E-02    0.641E-02
RMM:   4    -0.179236883579E+04    0.40992E-04   -0.27488E-04  1052   0.150E-02
   32 T=  3993. E= -.16643927E+04 F= -.17923688E+04 E0= -.17923688E+04  EK= 0.12491E+03 SP= 0.31E+01 SK= 0.14E-02
       N       E                     dE             d eps       ncg     rms          rms(c)
DAV:   1    -0.179242314702E+04   -0.54270E-01   -0.98453E-02  2840   0.322E+00    0.135E-01
RMM:   2    -0.179243364768E+04   -0.10501E-01   -0.10817E-01  1568   0.323E-01    0.863E-02
RMM:   3    -0.179243396579E+04   -0.31811E-03   -0.55151E-03  1792   0.558E-02    0.642E-02
RMM:   4    -0.179243391434E+04    0.51445E-04   -0.26630E-04  1049   0.145E-02
   33 T=  3998. E= -.16643953E+04 F= -.17924339E+04 E0= -.17924339E+04  EK= 0.12507E+03 SP= 0.30E+01 SK= 0.15E-02
       N       E                     dE             d eps       ncg     rms          rms(c)
DAV:   1    -0.179242399471E+04    0.99711E-02   -0.10017E-01  2832   0.323E+00    0.904E-02
RMM:   2    -0.179243452368E+04   -0.10529E-01   -0.10592E-01  1568   0.319E-01    0.906E-02
RMM:   3    -0.179243488168E+04   -0.35800E-03   -0.56827E-03  1793   0.559E-02    0.763E-02
RMM:   4    -0.179243482388E+04    0.57803E-04   -0.25013E-04  1043   0.138E-02
   34 T=  4001. E= -.16643979E+04 F= -.17924348E+04 E0= -.17924348E+04  EK= 0.12517E+03 SP= 0.29E+01 SK= 0.15E-02
       N       E                     dE             d eps       ncg     rms          rms(c)
DAV:   1    -0.179235699703E+04    0.77885E-01   -0.96890E-02  2792   0.323E+00    0.120E-01
RMM:   2    -0.179236765654E+04   -0.10660E-01   -0.10874E-01  1568   0.320E-01    0.836E-02
RMM:   3    -0.179236805847E+04   -0.40193E-03   -0.59560E-03  1799   0.569E-02    0.643E-02
RMM:   4    -0.179236801675E+04    0.41719E-04   -0.28025E-04  1060   0.149E-02
   35 T=  4002. E= -.16644002E+04 F= -.17923680E+04 E0= -.17923680E+04  EK= 0.12520E+03 SP= 0.28E+01 SK= 0.15E-02
       N       E                     dE             d eps       ncg     rms          rms(c)
DAV:   1    -0.179221744765E+04    0.15061E+00   -0.11291E-01  2792   0.324E+00    0.148E-01
RMM:   2    -0.179222894472E+04   -0.11497E-01   -0.11884E-01  1568   0.335E-01    0.809E-02
RMM:   3    -0.179222932041E+04   -0.37568E-03   -0.61850E-03  1803   0.590E-02    0.593E-02
RMM:   4    -0.179222927529E+04    0.45113E-04   -0.27520E-04  1064   0.145E-02
   36 T=  4001. E= -.16644015E+04 F= -.17922293E+04 E0= -.17922293E+04  EK= 0.12515E+03 SP= 0.27E+01 SK= 0.15E-02
       N       E                     dE             d eps       ncg     rms          rms(c)
DAV:   1    -0.179200260695E+04    0.22671E+00   -0.12950E-01  2848   0.326E+00    0.987E-02
RMM:   2    -0.179201456538E+04   -0.11958E-01   -0.12033E-01  1568   0.340E-01    0.966E-02
RMM:   3    -0.179201492993E+04   -0.36455E-03   -0.63328E-03  1805   0.599E-02    0.827E-02
RMM:   4    -0.179201486250E+04    0.67425E-04   -0.27598E-04  1063   0.143E-02
   37 T=  3997. E= -.16644031E+04 F= -.17920149E+04 E0= -.17920149E+04  EK= 0.12503E+03 SP= 0.26E+01 SK= 0.15E-02
       N       E                     dE             d eps       ncg     rms          rms(c)
DAV:   1    -0.179170716554E+04    0.30776E+00   -0.12372E-01  2784   0.325E+00    0.111E-01
RMM:   2    -0.179171905481E+04   -0.11889E-01   -0.12032E-01  1568   0.337E-01    0.918E-02
RMM:   3    -0.179171947188E+04   -0.41707E-03   -0.64446E-03  1798   0.602E-02    0.758E-02
RMM:   4    -0.179171942146E+04    0.50416E-04   -0.31386E-04  1078   0.155E-02
   38 T=  3991. E= -.16644044E+04 F= -.17917194E+04 E0= -.17917194E+04  EK= 0.12483E+03 SP= 0.25E+01 SK= 0.16E-02
       N       E                     dE             d eps       ncg     rms          rms(c)
DAV:   1    -0.179132680895E+04    0.39266E+00   -0.11367E-01  2800   0.325E+00    0.158E-01
RMM:   2    -0.179133835516E+04   -0.11546E-01   -0.12021E-01  1568   0.338E-01    0.809E-02
RMM:   3    -0.179133873984E+04   -0.38468E-03   -0.62178E-03  1796   0.595E-02    0.585E-02
RMM:   4    -0.179133869591E+04    0.43931E-04   -0.30679E-04  1076   0.153E-02
   39 T=  3982. E= -.16644047E+04 F= -.17913387E+04 E0= -.17913387E+04  EK= 0.12456E+03 SP= 0.24E+01 SK= 0.20E-02
       N       E                     dE             d eps       ncg     rms          rms(c)
DAV:   1    -0.179085933375E+04    0.47941E+00   -0.89887E-02  2880   0.325E+00    0.986E-02
RMM:   2    -0.179087015079E+04   -0.10817E-01   -0.10907E-01  1568   0.323E-01    0.871E-02
RMM:   3    -0.179087051545E+04   -0.36465E-03   -0.59103E-03  1793   0.568E-02    0.724E-02
RMM:   4    -0.179087045858E+04    0.56869E-04   -0.24700E-04  1038   0.134E-02
   40 T=  3971. E= -.16644045E+04 F= -.17908705E+04 E0= -.17908705E+04  EK= 0.12420E+03 SP= 0.23E+01 SK= 0.27E-02
       N       E                     dE             d eps       ncg     rms          rms(c)
DAV:   1    -0.179030501340E+04    0.56550E+00   -0.94129E-02  2824   0.323E+00    0.104E-01
RMM:   2    -0.179031540077E+04   -0.10387E-01   -0.10493E-01  1568   0.320E-01    0.841E-02
RMM:   3    -0.179031576166E+04   -0.36089E-03   -0.55739E-03  1802   0.557E-02    0.685E-02
RMM:   4    -0.179031571610E+04    0.45562E-04   -0.26100E-04  1038   0.142E-02
   41 T=  3957. E= -.16644038E+04 F= -.17903157E+04 E0= -.17903157E+04  EK= 0.12379E+03 SP= 0.21E+01 SK= 0.40E-02
       N       E                     dE             d eps       ncg     rms          rms(c)
DAV:   1    -0.178966943192E+04    0.64633E+00   -0.10446E-01  2856   0.323E+00    0.149E-01
RMM:   2    -0.178968044725E+04   -0.11015E-01   -0.11433E-01  1568   0.334E-01    0.836E-02
RMM:   3    -0.178968078276E+04   -0.33550E-03   -0.56925E-03  1806   0.572E-02    0.608E-02
RMM:   4    -0.178968073660E+04    0.46160E-04   -0.28508E-04  1063   0.149E-02
   42 T=  3943. E= -.16644025E+04 F= -.17896807E+04 E0= -.17896807E+04  EK= 0.12333E+03 SP= 0.19E+01 SK= 0.62E-02
       N       E                     dE             d eps       ncg     rms          rms(c)
DAV:   1    -0.178896380971E+04    0.71697E+00   -0.13173E-01  2792   0.323E+00    0.110E-01
RMM:   2    -0.178897585155E+04   -0.12042E-01   -0.12170E-01  1568   0.345E-01    0.963E-02
RMM:   3    -0.178897617024E+04   -0.31869E-03   -0.59280E-03  1808   0.587E-02    0.795E-02
RMM:   4    -0.178897610389E+04    0.66352E-04   -0.27324E-04  1060   0.143E-02
   43 T=  3927. E= -.16644004E+04 F= -.17889761E+04 E0= -.17889761E+04  EK= 0.12284E+03 SP= 0.17E+01 SK= 0.98E-02
       N       E                     dE             d eps       ncg     rms          rms(c)
DAV:   1    -0.178820719528E+04    0.76897E+00   -0.11782E-01  2792   0.322E+00    0.102E-01
RMM:   2    -0.178821894057E+04   -0.11745E-01   -0.11831E-01  1568   0.338E-01    0.985E-02
RMM:   3    -0.178821929781E+04   -0.35724E-03   -0.60195E-03  1803   0.583E-02    0.824E-02
RMM:   4    -0.178821923632E+04    0.61488E-04   -0.29257E-04  1065   0.150E-02
   44 T=  3911. E= -.16643985E+04 F= -.17882192E+04 E0= -.17882192E+04  EK= 0.12235E+03 SP= 0.15E+01 SK= 0.15E-01
       N       E                     dE             d eps       ncg     rms          rms(c)
DAV:   1    -0.178741980727E+04    0.79949E+00   -0.11325E-01  2784   0.320E+00    0.154E-01
RMM:   2    -0.178743122130E+04   -0.11414E-01   -0.11833E-01  1568   0.340E-01    0.846E-02
RMM:   3    -0.178743157177E+04   -0.35047E-03   -0.58944E-03  1803   0.580E-02    0.601E-02
RMM:   4    -0.178743153102E+04    0.40745E-04   -0.29836E-04  1072   0.151E-02
   45 T=  3897. E= -.16643960E+04 F= -.17874315E+04 E0= -.17874315E+04  EK= 0.12190E+03 SP= 0.11E+01 SK= 0.24E-01
       N       E                     dE             d eps       ncg     rms          rms(c)
DAV:   1    -0.178662732483E+04    0.80425E+00   -0.12642E-01  2784   0.320E+00    0.125E-01
RMM:   2    -0.178663910937E+04   -0.11785E-01   -0.11992E-01  1568   0.346E-01    0.935E-02
RMM:   3    -0.178663940044E+04   -0.29107E-03   -0.57295E-03  1799   0.579E-02    0.729E-02
RMM:   4    -0.178663933834E+04    0.62094E-04   -0.27026E-04  1058   0.143E-02
   46 T=  3885. E= -.16643938E+04 F= -.17866393E+04 E0= -.17866393E+04  EK= 0.12152E+03 SP= 0.69E+00 SK= 0.35E-01
       N       E                     dE             d eps       ncg     rms          rms(c)
DAV:   1    -0.178585794598E+04    0.78145E+00   -0.12151E-01  2800   0.320E+00    0.955E-02
RMM:   2    -0.178586959096E+04   -0.11645E-01   -0.11694E-01  1568   0.340E-01    0.972E-02
RMM:   3    -0.178586994191E+04   -0.35095E-03   -0.59300E-03  1797   0.578E-02    0.820E-02
RMM:   4    -0.178586988108E+04    0.60833E-04   -0.27267E-04  1055   0.144E-02
   47 T=  3876. E= -.16643928E+04 F= -.17858699E+04 E0= -.17858699E+04  EK= 0.12125E+03 SP= 0.17E+00 SK= 0.51E-01
       N       E                     dE             d eps       ncg     rms          rms(c)
DAV:   1    -0.178513614207E+04    0.73380E+00   -0.10986E-01  2808   0.318E+00    0.149E-01
RMM:   2    -0.178514774395E+04   -0.11602E-01   -0.11980E-01  1568   0.343E-01    0.891E-02
RMM:   3    -0.178514811589E+04   -0.37194E-03   -0.61256E-03  1808   0.588E-02    0.639E-02
RMM:   4    -0.178514807197E+04    0.43922E-04   -0.30968E-04  1071   0.156E-02
   48 T=  3872. E= -.16643926E+04 F= -.17851481E+04 E0= -.17851481E+04  EK= 0.12112E+03 SP= -.43E+00 SK= 0.70E-01
       N       E                     dE             d eps       ncg     rms          rms(c)
DAV:   1    -0.178448322282E+04    0.66489E+00   -0.10256E-01  2856   0.319E+00    0.135E-01
RMM:   2    -0.178449483180E+04   -0.11609E-01   -0.11889E-01  1568   0.344E-01    0.872E-02
RMM:   3    -0.178449516255E+04   -0.33075E-03   -0.58945E-03  1799   0.582E-02    0.649E-02
RMM:   4    -0.178449511192E+04    0.50631E-04   -0.26952E-04  1062   0.141E-02
   49 T=  3873. E= -.16643938E+04 F= -.17844951E+04 E0= -.17844951E+04  EK= 0.12115E+03 SP= -.11E+01 SK= 0.92E-01
       N       E                     dE             d eps       ncg     rms          rms(c)
DAV:   1    -0.178391316877E+04    0.58199E+00   -0.10796E-01  2824   0.319E+00    0.963E-02
RMM:   2    -0.178392442920E+04   -0.11260E-01   -0.11303E-01  1569   0.340E-01    0.971E-02
RMM:   3    -0.178392473988E+04   -0.31068E-03   -0.56242E-03  1790   0.567E-02    0.819E-02
RMM:   4    -0.178392467574E+04    0.64135E-04   -0.26736E-04  1058   0.141E-02
   50 T=  3879. E= -.16643974E+04 F= -.17839247E+04 E0= -.17839247E+04  EK= 0.12135E+03 SP= -.19E+01 SK= 0.12E+00
       N       E                     dE             d eps       ncg     rms          rms(c)
DAV:   1    -0.178342790560E+04    0.49683E+00   -0.12033E-01  2800   0.319E+00    0.136E-01
RMM:   2    -0.178343956383E+04   -0.11658E-01   -0.11921E-01  1568   0.349E-01    0.936E-02
RMM:   3    -0.178343989870E+04   -0.33488E-03   -0.58268E-03  1805   0.581E-02    0.711E-02
RMM:   4    -0.178343985255E+04    0.46153E-04   -0.30465E-04  1077   0.154E-02
   51 T=  3892. E= -.16644022E+04 F= -.17834399E+04 E0= -.17834399E+04  EK= 0.12173E+03 SP= -.28E+01 SK= 0.14E+00
       N       E                     dE             d eps       ncg     rms          rms(c)
DAV:   1    -0.178302144498E+04    0.41845E+00   -0.13551E-01  2800   0.320E+00    0.157E-01
RMM:   2    -0.178303407761E+04   -0.12633E-01   -0.13049E-01  1568   0.365E-01    0.893E-02
RMM:   3    -0.178303439531E+04   -0.31770E-03   -0.60417E-03  1801   0.603E-02    0.650E-02
RMM:   4    -0.178303434554E+04    0.49771E-04   -0.30323E-04  1083   0.151E-02
   52 T=  3909. E= -.16644083E+04 F= -.17830343E+04 E0= -.17830343E+04  EK= 0.12228E+03 SP= -.38E+01 SK= 0.17E+00
       N       E                     dE             d eps       ncg     rms          rms(c)
DAV:   1    -0.178268054714E+04    0.35385E+00   -0.12032E-01  2864   0.322E+00    0.966E-02
RMM:   2    -0.178269267186E+04   -0.12125E-01   -0.12169E-01  1568   0.353E-01    0.999E-02
RMM:   3    -0.178269300833E+04   -0.33647E-03   -0.60501E-03  1801   0.586E-02    0.847E-02
RMM:   4    -0.178269293995E+04    0.68379E-04   -0.26536E-04  1056   0.140E-02
   53 T=  3931. E= -.16644163E+04 F= -.17826929E+04 E0= -.17826929E+04  EK= 0.12296E+03 SP= -.49E+01 SK= 0.19E+00
       N       E                     dE             d eps       ncg     rms          rms(c)
DAV:   1    -0.178238122636E+04    0.31178E+00   -0.10133E-01  2848   0.322E+00    0.125E-01
RMM:   2    -0.178239270300E+04   -0.11477E-01   -0.11666E-01  1568   0.347E-01    0.936E-02
RMM:   3    -0.178239306321E+04   -0.36021E-03   -0.59411E-03  1799   0.575E-02    0.723E-02
RMM:   4    -0.178239301562E+04    0.47585E-04   -0.30821E-04  1075   0.156E-02
   54 T=  3956. E= -.16644250E+04 F= -.17823930E+04 E0= -.17823930E+04  EK= 0.12374E+03 SP= -.60E+01 SK= 0.20E+00
       N       E                     dE             d eps       ncg     rms          rms(c)
DAV:   1    -0.178209729076E+04    0.29577E+00   -0.10525E-01  2848   0.323E+00    0.168E-01
RMM:   2    -0.178210892108E+04   -0.11630E-01   -0.12150E-01  1568   0.359E-01    0.850E-02
RMM:   3    -0.178210922147E+04   -0.30040E-03   -0.56591E-03  1794   0.573E-02    0.584E-02
RMM:   4    -0.178210917567E+04    0.45799E-04   -0.28956E-04  1074   0.149E-02
   55 T=  3982. E= -.16644335E+04 F= -.17821092E+04 E0= -.17821092E+04  EK= 0.12458E+03 SP= -.71E+01 SK= 0.21E+00
       N       E                     dE             d eps       ncg     rms          rms(c)
DAV:   1    -0.178180337895E+04    0.30584E+00   -0.11365E-01  2840   0.325E+00    0.106E-01
RMM:   2    -0.178181512805E+04   -0.11749E-01   -0.11811E-01  1568   0.359E-01    0.101E-01
RMM:   3    -0.178181538871E+04   -0.26065E-03   -0.54632E-03  1786   0.564E-02    0.830E-02
RMM:   4    -0.178181531877E+04    0.69932E-04   -0.26615E-04  1058   0.143E-02
   56 T=  4010. E= -.16644422E+04 F= -.17818153E+04 E0= -.17818153E+04  EK= 0.12542E+03 SP= -.83E+01 SK= 0.21E+00
       N       E                     dE             d eps       ncg     rms          rms(c)
DAV:   1    -0.178147536328E+04    0.34003E+00   -0.11170E-01  2856   0.325E+00    0.118E-01
RMM:   2    -0.178148748681E+04   -0.12124E-01   -0.12266E-01  1568   0.360E-01    0.102E-01
RMM:   3    -0.178148781849E+04   -0.33167E-03   -0.59473E-03  1795   0.578E-02    0.812E-02
RMM:   4    -0.178148776391E+04    0.54576E-04   -0.33395E-04  1086   0.162E-02
   57 T=  4036. E= -.16644504E+04 F= -.17814878E+04 E0= -.17814878E+04  EK= 0.12624E+03 SP= -.94E+01 SK= 0.21E+00
       N       E                     dE             d eps       ncg     rms          rms(c)
DAV:   1    -0.178109564487E+04    0.39217E+00   -0.94330E-02  2888   0.326E+00    0.164E-01
RMM:   2    -0.178110789359E+04   -0.12249E-01   -0.12755E-01  1568   0.365E-01    0.868E-02
RMM:   3    -0.178110824230E+04   -0.34871E-03   -0.61427E-03  1791   0.586E-02    0.600E-02
RMM:   4    -0.178110819814E+04    0.44158E-04   -0.31502E-04  1088   0.156E-02
   58 T=  4059. E= -.16644571E+04 F= -.17811082E+04 E0= -.17811082E+04  EK= 0.12698E+03 SP= -.11E+02 SK= 0.19E+00
       N       E                     dE             d eps       ncg     rms          rms(c)
DAV:   1    -0.178065280955E+04    0.45543E+00   -0.10107E-01  2872   0.327E+00    0.114E-01
RMM:   2    -0.178066487077E+04   -0.12061E-01   -0.12166E-01  1568   0.365E-01    0.101E-01
RMM:   3    -0.178066513718E+04   -0.26641E-03   -0.56534E-03  1784   0.569E-02    0.815E-02
RMM:   4    -0.178066506463E+04    0.72554E-04   -0.28887E-04  1071   0.149E-02
   59 T=  4080. E= -.16644632E+04 F= -.17806651E+04 E0= -.17806651E+04  EK= 0.12762E+03 SP= -.12E+02 SK= 0.18E+00
       N       E                     dE             d eps       ncg     rms          rms(c)
DAV:   1    -0.178014237024E+04    0.52277E+00   -0.10759E-01  2848   0.327E+00    0.118E-01
RMM:   2    -0.178015416703E+04   -0.11797E-01   -0.11921E-01  1568   0.362E-01    0.996E-02
RMM:   3    -0.178015446463E+04   -0.29761E-03   -0.56191E-03  1785   0.564E-02    0.794E-02
RMM:   4    -0.178015441074E+04    0.53895E-04   -0.29437E-04  1075   0.152E-02
   60 T=  4096. E= -.16644682E+04 F= -.17801544E+04 E0= -.17801544E+04  EK= 0.12814E+03 SP= -.13E+02 SK= 0.15E+00
       N       E                     dE             d eps       ncg     rms          rms(c)
DAV:   1    -0.177957021980E+04    0.58424E+00   -0.10846E-01  2840   0.328E+00    0.161E-01
RMM:   2    -0.177958265298E+04   -0.12433E-01   -0.12882E-01  1568   0.374E-01    0.934E-02
RMM:   3    -0.177958294937E+04   -0.29639E-03   -0.58989E-03  1793   0.581E-02    0.673E-02
RMM:   4    -0.177958289734E+04    0.52029E-04   -0.30534E-04  1088   0.155E-02
   61 T=  4109. E= -.16644709E+04 F= -.17795829E+04 E0= -.17795829E+04  EK= 0.12852E+03 SP= -.14E+02 SK= 0.13E+00
       N       E                     dE             d eps       ncg     rms          rms(c)
DAV:   1    -0.177895788835E+04    0.62506E+00   -0.88961E-02  2856   0.329E+00    0.107E-01
RMM:   2    -0.177896965901E+04   -0.11771E-01   -0.11876E-01  1568   0.363E-01    0.104E-01
RMM:   3    -0.177896994011E+04   -0.28110E-03   -0.56244E-03  1781   0.560E-02    0.854E-02
RMM:   4    -0.177896986380E+04    0.76307E-04   -0.27086E-04  1058   0.145E-02
   62 T=  4117. E= -.16644726E+04 F= -.17789699E+04 E0= -.17789699E+04  EK= 0.12879E+03 SP= -.14E+02 SK= 0.11E+00
       N       E                     dE             d eps       ncg     rms          rms(c)
DAV:   1    -0.177833417214E+04    0.63577E+00   -0.81890E-02  2856   0.328E+00    0.121E-01
RMM:   2    -0.177834515020E+04   -0.10978E-01   -0.11130E-01  1568   0.353E-01    0.950E-02
RMM:   3    -0.177834545427E+04   -0.30407E-03   -0.53014E-03  1781   0.543E-02    0.733E-02
RMM:   4    -0.177834541008E+04    0.44198E-04   -0.27834E-04  1059   0.150E-02
   63 T=  4122. E= -.16644732E+04 F= -.17783454E+04 E0= -.17783454E+04  EK= 0.12894E+03 SP= -.15E+02 SK= 0.83E-01
       N       E                     dE             d eps       ncg     rms          rms(c)
DAV:   1    -0.177773756443E+04    0.60789E+00   -0.71642E-02  2944   0.328E+00    0.154E-01
RMM:   2    -0.177774794364E+04   -0.10379E-01   -0.10824E-01  1568   0.353E-01    0.854E-02
RMM:   3    -0.177774820564E+04   -0.26201E-03   -0.50293E-03  1770   0.530E-02    0.596E-02
RMM:   4    -0.177774815778E+04    0.47864E-04   -0.26838E-04  1050   0.146E-02
   64 T=  4125. E= -.16644723E+04 F= -.17777482E+04 E0= -.17777482E+04  EK= 0.12903E+03 SP= -.16E+02 SK= 0.62E-01
       N       E                     dE             d eps       ncg     rms          rms(c)
DAV:   1    -0.177721327369E+04    0.53493E+00   -0.72801E-02  2888   0.328E+00    0.965E-02
RMM:   2    -0.177722342142E+04   -0.10148E-01   -0.10207E-01  1568   0.346E-01    0.104E-01
RMM:   3    -0.177722366651E+04   -0.24509E-03   -0.48995E-03  1776   0.519E-02    0.864E-02
RMM:   4    -0.177722358759E+04    0.78927E-04   -0.25184E-04  1041   0.142E-02
   65 T=  4127. E= -.16644717E+04 F= -.17772236E+04 E0= -.17772236E+04  EK= 0.12910E+03 SP= -.16E+02 SK= 0.44E-01
       N       E                     dE             d eps       ncg     rms          rms(c)
DAV:   1    -0.177681091229E+04    0.41275E+00   -0.72404E-02  2872   0.327E+00    0.121E-01
RMM:   2    -0.177682063090E+04   -0.97186E-02   -0.99022E-02  1568   0.340E-01    0.907E-02
RMM:   3    -0.177682092536E+04   -0.29446E-03   -0.48607E-03  1785   0.516E-02    0.682E-02
RMM:   4    -0.177682088704E+04    0.38314E-04   -0.26142E-04  1045   0.147E-02
   66 T=  4130. E= -.16644712E+04 F= -.17768209E+04 E0= -.17768209E+04  EK= 0.12918E+03 SP= -.17E+02 SK= 0.29E-01
       N       E                     dE             d eps       ncg     rms          rms(c)
DAV:   1    -0.177657654961E+04    0.24438E+00   -0.80927E-02  2848   0.327E+00    0.159E-01
RMM:   2    -0.177658684346E+04   -0.10294E-01   -0.10755E-01  1568   0.353E-01    0.832E-02
RMM:   3    -0.177658709415E+04   -0.25068E-03   -0.49217E-03  1783   0.528E-02    0.566E-02
RMM:   4    -0.177658704559E+04    0.48556E-04   -0.25472E-04  1041   0.143E-02
   67 T=  4135. E= -.16644711E+04 F= -.17765870E+04 E0= -.17765870E+04  EK= 0.12934E+03 SP= -.17E+02 SK= 0.17E-01
       N       E                     dE             d eps       ncg     rms          rms(c)
DAV:   1    -0.177655018573E+04    0.36908E-01   -0.97198E-02  2880   0.327E+00    0.927E-02
RMM:   2    -0.177656063780E+04   -0.10452E-01   -0.10485E-01  1568   0.347E-01    0.100E-01
RMM:   3    -0.177656090663E+04   -0.26884E-03   -0.50858E-03  1787   0.530E-02    0.840E-02
RMM:   4    -0.177656083172E+04    0.74915E-04   -0.25325E-04  1038   0.142E-02
   68 T=  4143. E= -.16644727E+04 F= -.17765608E+04 E0= -.17765608E+04  EK= 0.12958E+03 SP= -.18E+02 SK= 0.74E-02
       N       E                     dE             d eps       ncg     rms          rms(c)
DAV:   1    -0.177675735573E+04   -0.19645E+00   -0.10571E-01  2816   0.327E+00    0.126E-01
RMM:   2    -0.177676755034E+04   -0.10195E-01   -0.10413E-01  1568   0.343E-01    0.899E-02
RMM:   3    -0.177676787769E+04   -0.32735E-03   -0.51881E-03  1804   0.534E-02    0.662E-02
RMM:   4    -0.177676784304E+04    0.34647E-04   -0.26492E-04  1034   0.149E-02
   69 T=  4154. E= -.16644765E+04 F= -.17767678E+04 E0= -.17767678E+04  EK= 0.12995E+03 SP= -.18E+02 SK= 0.16E-02
       N       E                     dE             d eps       ncg     rms          rms(c)
DAV:   1    -0.177720388068E+04   -0.43600E+00   -0.97712E-02  2816   0.328E+00    0.155E-01
RMM:   2    -0.177721448707E+04   -0.10606E-01   -0.11042E-01  1568   0.351E-01    0.799E-02
RMM:   3    -0.177721478706E+04   -0.29998E-03   -0.52328E-03  1802   0.541E-02    0.542E-02
RMM:   4    -0.177721474438E+04    0.42680E-04   -0.23367E-04  1022   0.138E-02
   70 T=  4170. E= -.16644815E+04 F= -.17772147E+04 E0= -.17772147E+04  EK= 0.13043E+03 SP= -.18E+02 SK= 0.11E-03
       N       E                     dE             d eps       ncg     rms          rms(c)
DAV:   1    -0.177788057109E+04   -0.66578E+00   -0.98387E-02  2808   0.329E+00    0.902E-02
RMM:   2    -0.177789084682E+04   -0.10276E-01   -0.10302E-01  1568   0.339E-01    0.993E-02
RMM:   3    -0.177789113364E+04   -0.28682E-03   -0.50610E-03  1798   0.528E-02    0.835E-02
RMM:   4    -0.177789106229E+04    0.71345E-04   -0.23246E-04  1014   0.139E-02
   71 T=  4188. E= -.16644887E+04 F= -.17778911E+04 E0= -.17778911E+04  EK= 0.13101E+03 SP= -.18E+02 SK= 0.44E-02
       N       E                     dE             d eps       ncg     rms          rms(c)
DAV:   1    -0.177876121866E+04   -0.87009E+00   -0.88227E-02  2824   0.329E+00    0.125E-01
RMM:   2    -0.177877057015E+04   -0.93515E-02   -0.95654E-02  1568   0.326E-01    0.863E-02
RMM:   3    -0.177877089838E+04   -0.32823E-03   -0.49536E-03  1779   0.515E-02    0.631E-02
RMM:   4    -0.177877086999E+04    0.28387E-04   -0.24391E-04  1026   0.143E-02
   72 T=  4208. E= -.16644973E+04 F= -.17787709E+04 E0= -.17787709E+04  EK= 0.13163E+03 SP= -.17E+02 SK= 0.16E-01
       N       E                     dE             d eps       ncg     rms          rms(c)
DAV:   1    -0.177980391930E+04   -0.10330E+01   -0.94315E-02  2816   0.330E+00    0.155E-01
RMM:   2    -0.177981444596E+04   -0.10527E-01   -0.10957E-01  1568   0.344E-01    0.804E-02
RMM:   3    -0.177981475080E+04   -0.30485E-03   -0.52967E-03  1787   0.543E-02    0.555E-02
RMM:   4    -0.177981470730E+04    0.43503E-04   -0.24567E-04  1036   0.140E-02
   73 T=  4228. E= -.16645057E+04 F= -.17798147E+04 E0= -.17798147E+04  EK= 0.13225E+03 SP= -.17E+02 SK= 0.38E-01
       N       E                     dE             d eps       ncg     rms          rms(c)
DAV:   1    -0.178096451788E+04   -0.11498E+01   -0.78519E-02  2896   0.332E+00    0.857E-02
RMM:   2    -0.178097490771E+04   -0.10390E-01   -0.10409E-01  1568   0.330E-01    0.976E-02
RMM:   3    -0.178097527346E+04   -0.36575E-03   -0.56808E-03  1796   0.542E-02    0.841E-02
RMM:   4    -0.178097520719E+04    0.66265E-04   -0.22909E-04  1021   0.135E-02
   74 T=  4245. E= -.16645147E+04 F= -.17809752E+04 E0= -.17809752E+04  EK= 0.13279E+03 SP= -.16E+02 SK= 0.72E-01
       N       E                     dE             d eps       ncg     rms          rms(c)
DAV:   1    -0.178219045752E+04   -0.12152E+01   -0.87310E-02  2832   0.331E+00    0.137E-01
RMM:   2    -0.178220017313E+04   -0.97156E-02   -0.10006E-01  1568   0.324E-01    0.838E-02
RMM:   3    -0.178220054341E+04   -0.37028E-03   -0.54658E-03  1792   0.536E-02    0.601E-02
RMM:   4    -0.178220051636E+04    0.27057E-04   -0.25480E-04  1039   0.145E-02
   75 T=  4258. E= -.16645236E+04 F= -.17822005E+04 E0= -.17822005E+04  EK= 0.13320E+03 SP= -.16E+02 SK= 0.12E+00
       N       E                     dE             d eps       ncg     rms          rms(c)
DAV:   1    -0.178342365708E+04   -0.12231E+01   -0.96514E-02  2864   0.333E+00    0.148E-01
RMM:   2    -0.178343457413E+04   -0.10917E-01   -0.11320E-01  1568   0.341E-01    0.844E-02
RMM:   3    -0.178343490311E+04   -0.32898E-03   -0.57539E-03  1796   0.561E-02    0.616E-02
RMM:   4    -0.178343485314E+04    0.49966E-04   -0.24205E-04  1036   0.136E-02
   76 T=  4265. E= -.16645306E+04 F= -.17834349E+04 E0= -.17834349E+04  EK= 0.13340E+03 SP= -.15E+02 SK= 0.18E+00
       N       E                     dE             d eps       ncg     rms          rms(c)
DAV:   1    -0.178461156838E+04   -0.11767E+01   -0.11802E-01  2840   0.334E+00    0.906E-02
RMM:   2    -0.178462260455E+04   -0.11036E-01   -0.11056E-01  1568   0.337E-01    0.998E-02
RMM:   3    -0.178462294333E+04   -0.33877E-03   -0.57424E-03  1797   0.560E-02    0.872E-02
RMM:   4    -0.178462287525E+04    0.68077E-04   -0.25732E-04  1045   0.141E-02
   77 T=  4263. E= -.16645370E+04 F= -.17846229E+04 E0= -.17846229E+04  EK= 0.13334E+03 SP= -.14E+02 SK= 0.26E+00
       N       E                     dE             d eps       ncg     rms          rms(c)
DAV:   1    -0.178569836265E+04   -0.10754E+01   -0.11286E-01  2832   0.332E+00    0.149E-01
RMM:   2    -0.178570923291E+04   -0.10870E-01   -0.11243E-01  1568   0.336E-01    0.846E-02
RMM:   3    -0.178570962013E+04   -0.38722E-03   -0.59516E-03  1784   0.568E-02    0.607E-02
RMM:   4    -0.178570959202E+04    0.28113E-04   -0.28913E-04  1066   0.151E-02
   78 T=  4251. E= -.16645410E+04 F= -.17857096E+04 E0= -.17857096E+04  EK= 0.13296E+03 SP= -.12E+02 SK= 0.35E+00
       N       E                     dE             d eps       ncg     rms          rms(c)
DAV:   1    -0.178663316891E+04   -0.92355E+00   -0.11498E-01  2824   0.333E+00    0.148E-01
RMM:   2    -0.178664514734E+04   -0.11978E-01   -0.12375E-01  1568   0.348E-01    0.876E-02
RMM:   3    -0.178664549026E+04   -0.34292E-03   -0.61629E-03  1794   0.587E-02    0.654E-02
RMM:   4    -0.178664543603E+04    0.54230E-04   -0.27834E-04  1065   0.144E-02
   79 T=  4228. E= -.16645421E+04 F= -.17866454E+04 E0= -.17866454E+04  EK= 0.13224E+03 SP= -.11E+02 SK= 0.44E+00
       N       E                     dE             d eps       ncg     rms          rms(c)
DAV:   1    -0.178737778803E+04   -0.73230E+00   -0.14158E-01  2800   0.332E+00    0.993E-02
RMM:   2    -0.178738997416E+04   -0.12186E-01   -0.12206E-01  1568   0.348E-01    0.103E-01
RMM:   3    -0.178739030956E+04   -0.33539E-03   -0.60382E-03  1796   0.587E-02    0.886E-02
RMM:   4    -0.178739024120E+04    0.68354E-04   -0.28288E-04  1074   0.146E-02
   80 T=  4193. E= -.16645410E+04 F= -.17873902E+04 E0= -.17873902E+04  EK= 0.13116E+03 SP= -.88E+01 SK= 0.53E+00
       N       E                     dE             d eps       ncg     rms          rms(c)
DAV:   1    -0.178790565290E+04   -0.51534E+00   -0.13733E-01  2768   0.329E+00    0.155E-01
RMM:   2    -0.178791766008E+04   -0.12007E-01   -0.12436E-01  1568   0.347E-01    0.893E-02
RMM:   3    -0.178791805373E+04   -0.39365E-03   -0.63323E-03  1798   0.593E-02    0.655E-02
RMM:   4    -0.178791801654E+04    0.37187E-04   -0.32353E-04  1092   0.159E-02
   81 T=  4147. E= -.16645361E+04 F= -.17879180E+04 E0= -.17879180E+04  EK= 0.12973E+03 SP= -.70E+01 SK= 0.61E+00
       N       E                     dE             d eps       ncg     rms          rms(c)
DAV:   1    -0.178820818156E+04   -0.29013E+00   -0.11973E-01  2824   0.328E+00    0.144E-01
RMM:   2    -0.178822019416E+04   -0.12013E-01   -0.12390E-01  1568   0.347E-01    0.922E-02
RMM:   3    -0.178822054012E+04   -0.34595E-03   -0.62533E-03  1787   0.590E-02    0.699E-02
RMM:   4    -0.178822047727E+04    0.62845E-04   -0.30728E-04  1090   0.153E-02
   82 T=  4091. E= -.16645281E+04 F= -.17882205E+04 E0= -.17882205E+04  EK= 0.12798E+03 SP= -.50E+01 SK= 0.67E+00
       N       E                     dE             d eps       ncg     rms          rms(c)
DAV:   1    -0.178829464468E+04   -0.74105E-01   -0.13484E-01  2792   0.325E+00    0.106E-01
RMM:   2    -0.178830645802E+04   -0.11813E-01   -0.11883E-01  1568   0.341E-01    0.990E-02
RMM:   3    -0.178830679325E+04   -0.33524E-03   -0.59903E-03  1798   0.581E-02    0.824E-02
RMM:   4    -0.178830673028E+04    0.62969E-04   -0.27868E-04  1071   0.144E-02
   83 T=  4027. E= -.16645176E+04 F= -.17883067E+04 E0= -.17883067E+04  EK= 0.12598E+03 SP= -.29E+01 SK= 0.70E+00
       N       E                     dE             d eps       ncg     rms          rms(c)
DAV:   1    -0.178819494591E+04    0.11185E+00   -0.11113E-01  2824   0.320E+00    0.134E-01
RMM:   2    -0.178820605193E+04   -0.11106E-01   -0.11401E-01  1568   0.334E-01    0.957E-02
RMM:   3    -0.178820639420E+04   -0.34227E-03   -0.58079E-03  1785   0.566E-02    0.732E-02
RMM:   4    -0.178820634068E+04    0.53514E-04   -0.32874E-04  1086   0.163E-02
   84 T=  3958. E= -.16645046E+04 F= -.17882063E+04 E0= -.17882063E+04  EK= 0.12380E+03 SP= -.80E+00 SK= 0.70E+00
       N       E                     dE             d eps       ncg     rms          rms(c)
DAV:   1    -0.178795625012E+04    0.25014E+00   -0.10778E-01  2808   0.317E+00    0.150E-01
RMM:   2    -0.178796691540E+04   -0.10665E-01   -0.11100E-01  1568   0.334E-01    0.895E-02
RMM:   3    -0.178796721519E+04   -0.29979E-03   -0.55025E-03  1780   0.557E-02    0.657E-02
RMM:   4    -0.178796715734E+04    0.57846E-04   -0.30695E-04  1076   0.156E-02
   85 T=  3886. E= -.16644900E+04 F= -.17879672E+04 E0= -.17879672E+04  EK= 0.12156E+03 SP= 0.13E+01 SK= 0.66E+00
       N       E                     dE             d eps       ncg     rms          rms(c)
DAV:   1    -0.178764049500E+04    0.32672E+00   -0.10435E-01  2792   0.314E+00    0.101E-01
RMM:   2    -0.178765058447E+04   -0.10089E-01   -0.10178E-01  1568   0.323E-01    0.985E-02
RMM:   3    -0.178765085104E+04   -0.26657E-03   -0.50518E-03  1778   0.535E-02    0.814E-02
RMM:   4    -0.178765077807E+04    0.72963E-04   -0.27246E-04  1050   0.147E-02
   86 T=  3816. E= -.16644748E+04 F= -.17876508E+04 E0= -.17876508E+04  EK= 0.11936E+03 SP= 0.32E+01 SK= 0.58E+00
       N       E                     dE             d eps       ncg     rms          rms(c)
DAV:   1    -0.178731987624E+04    0.33097E+00   -0.10462E-01  2856   0.309E+00    0.125E-01
RMM:   2    -0.178732982669E+04   -0.99504E-02   -0.10163E-01  1568   0.321E-01    0.924E-02
RMM:   3    -0.178733011748E+04   -0.29080E-03   -0.50637E-03  1777   0.536E-02    0.715E-02
RMM:   4    -0.178733007216E+04    0.45325E-04   -0.27902E-04  1057   0.149E-02
   87 T=  3751. E= -.16644605E+04 F= -.17873301E+04 E0= -.17873301E+04  EK= 0.11732E+03 SP= 0.51E+01 SK= 0.49E+00
       N       E                     dE             d eps       ncg     rms          rms(c)
DAV:   1    -0.178706681078E+04    0.26331E+00   -0.12809E-01  2800   0.306E+00    0.149E-01
RMM:   2    -0.178707783601E+04   -0.11025E-01   -0.11427E-01  1568   0.339E-01    0.920E-02
RMM:   3    -0.178707809111E+04   -0.25510E-03   -0.52404E-03  1785   0.557E-02    0.680E-02
RMM:   4    -0.178707803676E+04    0.54350E-04   -0.29600E-04  1075   0.153E-02
   88 T=  3694. E= -.16644473E+04 F= -.17870780E+04 E0= -.17870780E+04  EK= 0.11556E+03 SP= 0.67E+01 SK= 0.37E+00
       N       E                     dE             d eps       ncg     rms          rms(c)
DAV:   1    -0.178695175733E+04    0.12633E+00   -0.13827E-01  2824   0.304E+00    0.102E-01
RMM:   2    -0.178696286591E+04   -0.11109E-01   -0.11203E-01  1568   0.335E-01    0.998E-02
RMM:   3    -0.178696314149E+04   -0.27559E-03   -0.53431E-03  1794   0.558E-02    0.826E-02
RMM:   4    -0.178696307423E+04    0.67258E-04   -0.26386E-04  1056   0.144E-02
   89 T=  3650. E= -.16644370E+04 F= -.17869631E+04 E0= -.17869631E+04  EK= 0.11417E+03 SP= 0.81E+01 SK= 0.26E+00
       N       E                     dE             d eps       ncg     rms          rms(c)
DAV:   1    -0.178703244699E+04   -0.69306E-01   -0.10866E-01  2816   0.302E+00    0.112E-01
RMM:   2    -0.178704237728E+04   -0.99303E-02   -0.10084E-01  1568   0.317E-01    0.905E-02
RMM:   3    -0.178704267527E+04   -0.29799E-03   -0.50283E-03  1785   0.535E-02    0.718E-02
RMM:   4    -0.178704263064E+04    0.44631E-04   -0.26539E-04  1047   0.146E-02
   90 T=  3620. E= -.16644304E+04 F= -.17870426E+04 E0= -.17870426E+04  EK= 0.11323E+03 SP= 0.92E+01 SK= 0.16E+00
       N       E                     dE             d eps       ncg     rms          rms(c)
DAV:   1    -0.178734754090E+04   -0.30487E+00   -0.10033E-01  2824   0.301E+00    0.147E-01
RMM:   2    -0.178735728558E+04   -0.97447E-02   -0.10136E-01  1568   0.319E-01    0.818E-02
RMM:   3    -0.178735754861E+04   -0.26303E-03   -0.47899E-03  1783   0.530E-02    0.587E-02
RMM:   4    -0.178735750728E+04    0.41327E-04   -0.25015E-04  1040   0.142E-02
   91 T=  3606. E= -.16644276E+04 F= -.17873575E+04 E0= -.17873575E+04  EK= 0.11279E+03 SP= 0.10E+02 SK= 0.76E-01
       N       E                     dE             d eps       ncg     rms          rms(c)
DAV:   1    -0.178791961876E+04   -0.56207E+00   -0.88989E-02  2792   0.302E+00    0.956E-02
RMM:   2    -0.178792883113E+04   -0.92124E-02   -0.92921E-02  1568   0.307E-01    0.873E-02
RMM:   3    -0.178792909683E+04   -0.26569E-03   -0.46640E-03  1763   0.513E-02    0.711E-02
RMM:   4    -0.178792904456E+04    0.52263E-04   -0.22028E-04  1014   0.133E-02
   92 T=  3609. E= -.16644294E+04 F= -.17879290E+04 E0= -.17879290E+04  EK= 0.11288E+03 SP= 0.11E+02 SK= 0.23E-01
       N       E                     dE             d eps       ncg     rms          rms(c)
DAV:   1    -0.178874733259E+04   -0.81824E+00   -0.91063E-02  2808   0.302E+00    0.110E-01
RMM:   2    -0.178875611163E+04   -0.87790E-02   -0.89325E-02  1568   0.302E-01    0.819E-02
RMM:   3    -0.178875638154E+04   -0.26990E-03   -0.44920E-03  1767   0.506E-02    0.640E-02
RMM:   4    -0.178875634320E+04    0.38340E-04   -0.23916E-04  1025   0.140E-02
   93 T=  3628. E= -.16644358E+04 F= -.17887563E+04 E0= -.17887563E+04  EK= 0.11350E+03 SP= 0.11E+02 SK= 0.12E-02
       N       E                     dE             d eps       ncg     rms          rms(c)
DAV:   1    -0.178980681481E+04   -0.10504E+01   -0.10121E-01  2824   0.304E+00    0.133E-01
RMM:   2    -0.178981617144E+04   -0.93566E-02   -0.96694E-02  1568   0.313E-01    0.853E-02
RMM:   3    -0.178981641136E+04   -0.23992E-03   -0.45427E-03  1768   0.518E-02    0.633E-02
RMM:   4    -0.178981636660E+04    0.44761E-04   -0.25267E-04  1033   0.143E-02
   94 T=  3664. E= -.16644460E+04 F= -.17898164E+04 E0= -.17898164E+04  EK= 0.11460E+03 SP= 0.11E+02 SK= 0.57E-02
       N       E                     dE             d eps       ncg     rms          rms(c)
DAV:   1    -0.179105745448E+04   -0.12410E+01   -0.95870E-02  2800   0.307E+00    0.993E-02
RMM:   2    -0.179106720166E+04   -0.97472E-02   -0.98466E-02  1568   0.314E-01    0.910E-02
RMM:   3    -0.179106748569E+04   -0.28402E-03   -0.48502E-03  1775   0.529E-02    0.740E-02
RMM:   4    -0.179106743178E+04    0.53908E-04   -0.24637E-04  1032   0.141E-02
   95 T=  3712. E= -.16644603E+04 F= -.17910674E+04 E0= -.17910674E+04  EK= 0.11613E+03 SP= 0.10E+02 SK= 0.30E-01
       N       E                     dE             d eps       ncg     rms          rms(c)
DAV:   1    -0.179244183298E+04   -0.13743E+01   -0.86798E-02  2824   0.309E+00    0.116E-01
RMM:   2    -0.179245131347E+04   -0.94805E-02   -0.96702E-02  1568   0.311E-01    0.861E-02
RMM:   3    -0.179245161879E+04   -0.30532E-03   -0.48948E-03  1780   0.527E-02    0.662E-02
RMM:   4    -0.179245157651E+04    0.42281E-04   -0.26962E-04  1046   0.149E-02
   96 T=  3772. E= -.16644772E+04 F= -.17924516E+04 E0= -.17924516E+04  EK= 0.11800E+03 SP= 0.99E+01 SK= 0.64E-01
       N       E                     dE             d eps       ncg     rms          rms(c)
DAV:   1    -0.179389316897E+04   -0.14416E+01   -0.84978E-02  2808   0.313E+00    0.135E-01
RMM:   2    -0.179390257733E+04   -0.94084E-02   -0.97285E-02  1568   0.315E-01    0.852E-02
RMM:   3    -0.179390284393E+04   -0.26660E-03   -0.47254E-03  1774   0.521E-02    0.618E-02
RMM:   4    -0.179390279740E+04    0.46529E-04   -0.26349E-04  1039   0.148E-02
   97 T=  3840. E= -.16644955E+04 F= -.17939028E+04 E0= -.17939028E+04  EK= 0.12012E+03 SP= 0.92E+01 SK= 0.98E-01
       N       E                     dE             d eps       ncg     rms          rms(c)
DAV:   1    -0.179534314801E+04   -0.14403E+01   -0.94062E-02  2832   0.317E+00    0.106E-01
RMM:   2    -0.179535286294E+04   -0.97149E-02   -0.98452E-02  1568   0.319E-01    0.956E-02
RMM:   3    -0.179535311227E+04   -0.24933E-03   -0.46872E-03  1773   0.523E-02    0.766E-02
RMM:   4    -0.179535304862E+04    0.63647E-04   -0.26924E-04  1043   0.149E-02
   98 T=  3912. E= -.16645149E+04 F= -.17953530E+04 E0= -.17953530E+04  EK= 0.12236E+03 SP= 0.84E+01 SK= 0.12E+00
       N       E                     dE             d eps       ncg     rms          rms(c)
DAV:   1    -0.179672740835E+04   -0.13743E+01   -0.92280E-02  2832   0.320E+00    0.115E-01
RMM:   2    -0.179673709572E+04   -0.96874E-02   -0.98768E-02  1568   0.322E-01    0.959E-02
RMM:   3    -0.179673736862E+04   -0.27290E-03   -0.47915E-03  1774   0.529E-02    0.753E-02
RMM:   4    -0.179673731154E+04    0.57080E-04   -0.30954E-04  1077   0.161E-02
   99 T=  3984. E= -.16645336E+04 F= -.17967373E+04 E0= -.17967373E+04  EK= 0.12462E+03 SP= 0.74E+01 SK= 0.14E+00
       N       E                     dE             d eps       ncg     rms          rms(c)
DAV:   1    -0.179799205211E+04   -0.12547E+01   -0.99163E-02  2824   0.323E+00    0.148E-01
RMM:   2    -0.179800242028E+04   -0.10368E-01   -0.10767E-01  1568   0.334E-01    0.914E-02
RMM:   3    -0.179800269795E+04   -0.27767E-03   -0.50708E-03  1773   0.548E-02    0.661E-02
RMM:   4    -0.179800264721E+04    0.50744E-04   -0.31351E-04  1079   0.160E-02
  100 T=  4053. E= -.16645508E+04 F= -.17980026E+04 E0= -.17980026E+04  EK= 0.12679E+03 SP= 0.65E+01 SK= 0.13E+00
       N       E                     dE             d eps       ncg     rms          rms(c)
DAV:   1    -0.179909675224E+04   -0.10941E+01   -0.99728E-02  2832   0.327E+00    0.114E-01
RMM:   2    -0.179910787372E+04   -0.11121E-01   -0.11278E-01  1568   0.337E-01    0.101E-01
RMM:   3    -0.179910817869E+04   -0.30497E-03   -0.55001E-03  1783   0.563E-02    0.806E-02
RMM:   4    -0.179910810531E+04    0.73376E-04   -0.31725E-04  1078   0.160E-02
  101 T=  4117. E= -.16645661E+04 F= -.17991081E+04 E0= -.17991081E+04  EK= 0.12878E+03 SP= 0.57E+01 SK= 0.11E+00
       N       E                     dE             d eps       ncg     rms          rms(c)
DAV:   1    -0.180001720002E+04   -0.90902E+00   -0.12607E-01  2800   0.328E+00    0.127E-01
RMM:   2    -0.180002863250E+04   -0.11432E-01   -0.11641E-01  1568   0.345E-01    0.101E-01
RMM:   3    -0.180002893160E+04   -0.29909E-03   -0.54376E-03  1790   0.571E-02    0.785E-02
RMM:   4    -0.180002887310E+04    0.58492E-04   -0.34793E-04  1098   0.168E-02
  102 T=  4172. E= -.16645789E+04 F= -.18000289E+04 E0= -.18000289E+04  EK= 0.13050E+03 SP= 0.49E+01 SK= 0.84E-01
       N       E                     dE             d eps       ncg     rms          rms(c)
DAV:   1    -0.180074430347E+04   -0.71537E+00   -0.14161E-01  2784   0.330E+00    0.159E-01
RMM:   2    -0.180075672290E+04   -0.12419E-01   -0.12870E-01  1568   0.362E-01    0.983E-02
RMM:   3    -0.180075701506E+04   -0.29217E-03   -0.58142E-03  1789   0.596E-02    0.721E-02
RMM:   4    -0.180075695602E+04    0.59042E-04   -0.35394E-04  1110   0.167E-02
  103 T=  4217. E= -.16645889E+04 F= -.18007570E+04 E0= -.18007570E+04  EK= 0.13191E+03 SP= 0.42E+01 SK= 0.53E-01
       N       E                     dE             d eps       ncg     rms          rms(c)
DAV:   1    -0.180128600685E+04   -0.52899E+00   -0.11613E-01  2800   0.332E+00    0.109E-01
RMM:   2    -0.180129849066E+04   -0.12484E-01   -0.12609E-01  1568   0.353E-01    0.108E-01
RMM:   3    -0.180129883087E+04   -0.34021E-03   -0.62085E-03  1785   0.596E-02    0.887E-02
RMM:   4    -0.180129874746E+04    0.83408E-04   -0.33565E-04  1088   0.161E-02
  104 T=  4250. E= -.16645962E+04 F= -.18012987E+04 E0= -.18012987E+04  EK= 0.13296E+03 SP= 0.37E+01 SK= 0.25E-01
       N       E                     dE             d eps       ncg     rms          rms(c)
DAV:   1    -0.180166243324E+04   -0.36360E+00   -0.11170E-01  2808   0.331E+00    0.125E-01
RMM:   2    -0.180167389344E+04   -0.11460E-01   -0.11651E-01  1568   0.345E-01    0.967E-02
RMM:   3    -0.180167421632E+04   -0.32289E-03   -0.56521E-03  1782   0.573E-02    0.759E-02
RMM:   4    -0.180167416097E+04    0.55354E-04   -0.33474E-04  1086   0.163E-02
  105 T=  4272. E= -.16646011E+04 F= -.18016742E+04 E0= -.18016742E+04  EK= 0.13364E+03 SP= 0.34E+01 SK= 0.58E-02
       N       E                     dE             d eps       ncg     rms          rms(c)
DAV:   1    -0.180189966828E+04   -0.22545E+00   -0.94790E-02  2872   0.331E+00    0.155E-01
RMM:   2    -0.180191064954E+04   -0.10981E-01   -0.11417E-01  1568   0.344E-01    0.869E-02
RMM:   3    -0.180191094627E+04   -0.29674E-03   -0.54473E-03  1781   0.563E-02    0.616E-02
RMM:   4    -0.180191089736E+04    0.48912E-04   -0.30588E-04  1070   0.154E-02
  106 T=  4283. E= -.16646035E+04 F= -.18019109E+04 E0= -.18019109E+04  EK= 0.13397E+03 SP= 0.33E+01 SK= 0.97E-04
       N       E                     dE             d eps       ncg     rms          rms(c)
DAV:   1    -0.180202771984E+04   -0.11677E+00   -0.97573E-02  2864   0.331E+00    0.107E-01
RMM:   2    -0.180203872578E+04   -0.11006E-01   -0.11101E-01  1568   0.340E-01    0.936E-02
RMM:   3    -0.180203901172E+04   -0.28595E-03   -0.53220E-03  1767   0.556E-02    0.760E-02
RMM:   4    -0.180203894700E+04    0.64723E-04   -0.28381E-04  1062   0.147E-02
  107 T=  4282. E= -.16646043E+04 F= -.18020389E+04 E0= -.18020389E+04  EK= 0.13395E+03 SP= 0.35E+01 SK= 0.95E-02
       N       E                     dE             d eps       ncg     rms          rms(c)
DAV:   1    -0.180207456175E+04   -0.35550E-01   -0.12051E-01  2792   0.330E+00    0.120E-01
RMM:   2    -0.180208593344E+04   -0.11372E-01   -0.11524E-01  1568   0.345E-01    0.925E-02
RMM:   3    -0.180208623104E+04   -0.29760E-03   -0.53625E-03  1778   0.565E-02    0.730E-02
RMM:   4    -0.180208618176E+04    0.49279E-04   -0.31987E-04  1083   0.157E-02
  108 T=  4272. E= -.16646043E+04 F= -.18020862E+04 E0= -.18020862E+04  EK= 0.13362E+03 SP= 0.38E+01 SK= 0.34E-01
       N       E                     dE             d eps       ncg     rms          rms(c)
DAV:   1    -0.180205896795E+04    0.27263E-01   -0.12297E-01  2800   0.329E+00    0.146E-01
RMM:   2    -0.180207067800E+04   -0.11710E-01   -0.12063E-01  1568   0.351E-01    0.869E-02
RMM:   3    -0.180207097843E+04   -0.30044E-03   -0.56038E-03  1771   0.576E-02    0.641E-02
RMM:   4    -0.180207093338E+04    0.45055E-04   -0.32001E-04  1084   0.155E-02
  109 T=  4252. E= -.16646027E+04 F= -.18020709E+04 E0= -.18020709E+04  EK= 0.13301E+03 SP= 0.44E+01 SK= 0.70E-01
       N       E                     dE             d eps       ncg     rms          rms(c)
DAV:   1    -0.180199027466E+04    0.80704E-01   -0.11723E-01  2816   0.328E+00    0.110E-01
RMM:   2    -0.180200208610E+04   -0.11811E-01   -0.11911E-01  1568   0.348E-01    0.957E-02
RMM:   3    -0.180200236877E+04   -0.28267E-03   -0.55441E-03  1775   0.572E-02    0.777E-02
RMM:   4    -0.180200230373E+04    0.65036E-04   -0.30488E-04  1080   0.151E-02
  110 T=  4224. E= -.16646007E+04 F= -.18020023E+04 E0= -.18020023E+04  EK= 0.13214E+03 SP= 0.51E+01 SK= 0.11E+00
       N       E                     dE             d eps       ncg     rms          rms(c)
DAV:   1    -0.180186885787E+04    0.13351E+00   -0.10964E-01  2840   0.326E+00    0.120E-01
RMM:   2    -0.180188045218E+04   -0.11594E-01   -0.11742E-01  1568   0.342E-01    0.911E-02
RMM:   3    -0.180188074677E+04   -0.29459E-03   -0.54607E-03  1768   0.566E-02    0.716E-02
RMM:   4    -0.180188069684E+04    0.49933E-04   -0.30874E-04  1076   0.154E-02
  111 T=  4189. E= -.16645973E+04 F= -.18018807E+04 E0= -.18018807E+04  EK= 0.13105E+03 SP= 0.61E+01 SK= 0.16E+00
       N       E                     dE             d eps       ncg     rms          rms(c)
DAV:   1    -0.180169308027E+04    0.18767E+00   -0.10847E-01  2816   0.324E+00    0.145E-01
RMM:   2    -0.180170443779E+04   -0.11358E-01   -0.11687E-01  1568   0.344E-01    0.922E-02
RMM:   3    -0.180170467824E+04   -0.24045E-03   -0.51874E-03  1766   0.558E-02    0.684E-02
RMM:   4    -0.180170462463E+04    0.53614E-04   -0.31900E-04  1092   0.157E-02
  112 T=  4148. E= -.16645927E+04 F= -.18017046E+04 E0= -.18017046E+04  EK= 0.12976E+03 SP= 0.71E+01 SK= 0.21E+00
       N       E                     dE             d eps       ncg     rms          rms(c)
DAV:   1    -0.180146210067E+04    0.24258E+00   -0.92457E-02  2864   0.323E+00    0.113E-01
RMM:   2    -0.180147291378E+04   -0.10813E-01   -0.10946E-01  1568   0.335E-01    0.988E-02
RMM:   3    -0.180147315038E+04   -0.23660E-03   -0.49828E-03  1752   0.541E-02    0.790E-02
RMM:   4    -0.180147308237E+04    0.68013E-04   -0.30476E-04  1081   0.154E-02
  113 T=  4102. E= -.16645867E+04 F= -.18014731E+04 E0= -.18014731E+04  EK= 0.12831E+03 SP= 0.83E+01 SK= 0.24E+00
       N       E                     dE             d eps       ncg     rms          rms(c)
DAV:   1    -0.180118176469E+04    0.29139E+00   -0.95527E-02  2840   0.320E+00    0.129E-01
RMM:   2    -0.180119271607E+04   -0.10951E-01   -0.11159E-01  1568   0.337E-01    0.100E-01
RMM:   3    -0.180119295453E+04   -0.23846E-03   -0.49850E-03  1757   0.545E-02    0.775E-02
RMM:   4    -0.180119289428E+04    0.60253E-04   -0.34480E-04  1107   0.167E-02
  114 T=  4052. E= -.16645795E+04 F= -.18011929E+04 E0= -.18011929E+04  EK= 0.12674E+03 SP= 0.96E+01 SK= 0.27E+00
       N       E                     dE             d eps       ncg     rms          rms(c)
DAV:   1    -0.180086975553E+04    0.32320E+00   -0.89109E-02  2816   0.318E+00    0.146E-01
RMM:   2    -0.180088085861E+04   -0.11103E-01   -0.11452E-01  1568   0.341E-01    0.976E-02
RMM:   3    -0.180088109773E+04   -0.23912E-03   -0.51010E-03  1757   0.549E-02    0.720E-02
RMM:   4    -0.180088103869E+04    0.59037E-04   -0.33597E-04  1105   0.164E-02
  115 T=  4000. E= -.16645706E+04 F= -.18008810E+04 E0= -.18008810E+04  EK= 0.12512E+03 SP= 0.11E+02 SK= 0.28E+00
       N       E                     dE             d eps       ncg     rms          rms(c)
DAV:   1    -0.180055529266E+04    0.32581E+00   -0.88434E-02  2808   0.315E+00    0.118E-01
RMM:   2    -0.180056622407E+04   -0.10931E-01   -0.11094E-01  1568   0.336E-01    0.104E-01
RMM:   3    -0.180056644803E+04   -0.22396E-03   -0.49720E-03  1757   0.541E-02    0.822E-02
RMM:   4    -0.180056637230E+04    0.75731E-04   -0.32465E-04  1089   0.162E-02
  116 T=  3949. E= -.16645612E+04 F= -.18005664E+04 E0= -.18005664E+04  EK= 0.12352E+03 SP= 0.12E+02 SK= 0.27E+00
       N       E                     dE             d eps       ncg     rms          rms(c)
DAV:   1    -0.180027726654E+04    0.28918E+00   -0.87987E-02  2888   0.313E+00    0.125E-01
RMM:   2    -0.180028768534E+04   -0.10419E-01   -0.10621E-01  1568   0.331E-01    0.101E-01
RMM:   3    -0.180028791101E+04   -0.22566E-03   -0.47710E-03  1747   0.534E-02    0.779E-02
RMM:   4    -0.180028784887E+04    0.62134E-04   -0.34225E-04  1105   0.168E-02
  117 T=  3900. E= -.16645517E+04 F= -.18002878E+04 E0= -.18002878E+04  EK= 0.12201E+03 SP= 0.13E+02 SK= 0.24E+00
       N       E                     dE             d eps       ncg     rms          rms(c)
DAV:   1    -0.180007843590E+04    0.20948E+00   -0.87164E-02  2872   0.311E+00    0.144E-01
RMM:   2    -0.180008871795E+04   -0.10282E-01   -0.10625E-01  1568   0.331E-01    0.904E-02
RMM:   3    -0.180008893563E+04   -0.21769E-03   -0.46843E-03  1739   0.531E-02    0.655E-02
RMM:   4    -0.180008888460E+04    0.51038E-04   -0.30874E-04  1081   0.157E-02
  118 T=  3857. E= -.16645433E+04 F= -.18000889E+04 E0= -.18000889E+04  EK= 0.12066E+03 SP= 0.15E+02 SK= 0.21E+00
       N       E                     dE             d eps       ncg     rms          rms(c)
DAV:   1    -0.179999718515E+04    0.91750E-01   -0.81931E-02  2856   0.310E+00    0.107E-01
RMM:   2    -0.180000754427E+04   -0.10359E-01   -0.10471E-01  1568   0.323E-01    0.972E-02
RMM:   3    -0.180000777664E+04   -0.23237E-03   -0.47800E-03  1753   0.526E-02    0.775E-02
RMM:   4    -0.180000770860E+04    0.68041E-04   -0.28709E-04  1065   0.152E-02
  119 T=  3822. E= -.16645371E+04 F= -.18000077E+04 E0= -.18000077E+04  EK= 0.11955E+03 SP= 0.16E+02 SK= 0.17E+00
       N       E                     dE             d eps       ncg     rms          rms(c)
DAV:   1    -0.180005817123E+04   -0.50395E-01   -0.99044E-02  2816   0.308E+00    0.122E-01
RMM:   2    -0.180006854228E+04   -0.10371E-01   -0.10551E-01  1569   0.323E-01    0.918E-02
RMM:   3    -0.180006878370E+04   -0.24141E-03   -0.47673E-03  1757   0.533E-02    0.704E-02
RMM:   4    -0.180006873621E+04    0.47481E-04   -0.30049E-04  1072   0.156E-02
  120 T=  3795. E= -.16645337E+04 F= -.18000687E+04 E0= -.18000687E+04  EK= 0.11871E+03 SP= 0.17E+02 SK= 0.12E+00
       N       E                     dE             d eps       ncg     rms          rms(c)
DAV:   1    -0.180026507628E+04   -0.19629E+00   -0.11465E-01  2808   0.308E+00    0.139E-01
RMM:   2    -0.180027554874E+04   -0.10472E-01   -0.10785E-01  1568   0.329E-01    0.878E-02
RMM:   3    -0.180027576344E+04   -0.21470E-03   -0.47238E-03  1759   0.537E-02    0.649E-02
RMM:   4    -0.180027571540E+04    0.48031E-04   -0.28132E-04  1062   0.150E-02
  121 T=  3778. E= -.16645332E+04 F= -.18002757E+04 E0= -.18002757E+04  EK= 0.11818E+03 SP= 0.17E+02 SK= 0.79E-01
       N       E                     dE             d eps       ncg     rms          rms(c)
DAV:   1    -0.180059979730E+04   -0.32403E+00   -0.11021E-01  2816   0.308E+00    0.103E-01
RMM:   2    -0.180061020102E+04   -0.10404E-01   -0.10494E-01  1568   0.320E-01    0.918E-02
RMM:   3    -0.180061044410E+04   -0.24308E-03   -0.48697E-03  1755   0.536E-02    0.743E-02
RMM:   4    -0.180061038837E+04    0.55728E-04   -0.26444E-04  1055   0.144E-02
  122 T=  3770. E= -.16645359E+04 F= -.18006104E+04 E0= -.18006104E+04  EK= 0.11793E+03 SP= 0.18E+02 SK= 0.45E-01
       N       E                     dE             d eps       ncg     rms          rms(c)
DAV:   1    -0.180102168560E+04   -0.41124E+00   -0.10240E-01  2824   0.308E+00    0.118E-01
RMM:   2    -0.180103181987E+04   -0.10134E-01   -0.10317E-01  1568   0.316E-01    0.885E-02
RMM:   3    -0.180103207911E+04   -0.25923E-03   -0.48354E-03  1770   0.534E-02    0.685E-02
RMM:   4    -0.180103203170E+04    0.47408E-04   -0.28388E-04  1062   0.152E-02
  123 T=  3770. E= -.16645413E+04 F= -.18010320E+04 E0= -.18010320E+04  EK= 0.11794E+03 SP= 0.19E+02 SK= 0.20E-01
       N       E                     dE             d eps       ncg     rms          rms(c)
DAV:   1    -0.180147275906E+04   -0.44068E+00   -0.10848E-01  2832   0.309E+00    0.140E-01
RMM:   2    -0.180148305336E+04   -0.10294E-01   -0.10626E-01  1568   0.321E-01    0.860E-02
RMM:   3    -0.180148328771E+04   -0.23435E-03   -0.47794E-03  1762   0.537E-02    0.631E-02
RMM:   4    -0.180148324006E+04    0.47655E-04   -0.28345E-04  1075   0.151E-02
  124 T=  3777. E= -.16645483E+04 F= -.18014832E+04 E0= -.18014832E+04  EK= 0.11814E+03 SP= 0.19E+02 SK= 0.48E-02
       N       E                     dE             d eps       ncg     rms          rms(c)
DAV:   1    -0.180188745638E+04   -0.40417E+00   -0.11242E-01  2792   0.311E+00    0.112E-01
RMM:   2    -0.180189786343E+04   -0.10407E-01   -0.10547E-01  1568   0.319E-01    0.931E-02
RMM:   3    -0.180189809403E+04   -0.23061E-03   -0.47661E-03  1761   0.534E-02    0.738E-02
RMM:   4    -0.180189803452E+04    0.59513E-04   -0.28119E-04  1064   0.150E-02
  125 T=  3787. E= -.16645560E+04 F= -.18018980E+04 E0= -.18018980E+04  EK= 0.11846E+03 SP= 0.19E+02 SK= 0.25E-05
       N       E                     dE             d eps       ncg     rms          rms(c)
DAV:   1    -0.180220046126E+04   -0.30237E+00   -0.96011E-02  2792   0.312E+00    0.115E-01
RMM:   2    -0.180221041617E+04   -0.99549E-02   -0.10143E-01  1568   0.312E-01    0.944E-02
RMM:   3    -0.180221067542E+04   -0.25925E-03   -0.47451E-03  1766   0.528E-02    0.739E-02
RMM:   4    -0.180221062172E+04    0.53697E-04   -0.30823E-04  1078   0.160E-02
  126 T=  3799. E= -.16645634E+04 F= -.18022106E+04 E0= -.18022106E+04  EK= 0.11884E+03 SP= 0.19E+02 SK= 0.39E-02
       N       E                     dE             d eps       ncg     rms          rms(c)
DAV:   1    -0.180235478364E+04   -0.14411E+00   -0.10145E-01  2792   0.314E+00    0.146E-01
RMM:   2    -0.180236507658E+04   -0.10293E-01   -0.10686E-01  1568   0.320E-01    0.898E-02
RMM:   3    -0.180236531690E+04   -0.24032E-03   -0.47593E-03  1771   0.536E-02    0.651E-02
RMM:   4    -0.180236526954E+04    0.47365E-04   -0.30845E-04  1092   0.159E-02
  127 T=  3811. E= -.16645694E+04 F= -.18023653E+04 E0= -.18023653E+04  EK= 0.11921E+03 SP= 0.19E+02 SK= 0.15E-01
       N       E                     dE             d eps       ncg     rms          rms(c)
DAV:   1    -0.180231182729E+04    0.53490E-01   -0.12312E-01  2800   0.316E+00    0.115E-01
RMM:   2    -0.180232250939E+04   -0.10682E-01   -0.10855E-01  1568   0.324E-01    0.101E-01
RMM:   3    -0.180232272342E+04   -0.21404E-03   -0.47631E-03  1775   0.538E-02    0.801E-02
RMM:   4    -0.180232265054E+04    0.72879E-04   -0.32221E-04  1098   0.163E-02
  128 T=  3821. E= -.16645739E+04 F= -.18023227E+04 E0= -.18023227E+04  EK= 0.11953E+03 SP= 0.18E+02 SK= 0.33E-01
       N       E                     dE             d eps       ncg     rms          rms(c)
DAV:   1    -0.180205015698E+04    0.27257E+00   -0.11487E-01  2784   0.317E+00    0.113E-01
RMM:   2    -0.180206072112E+04   -0.10564E-01   -0.10739E-01  1568   0.316E-01    0.975E-02
RMM:   3    -0.180206100438E+04   -0.28326E-03   -0.50889E-03  1775   0.541E-02    0.772E-02
RMM:   4    -0.180206094469E+04    0.59687E-04   -0.33176E-04  1087   0.167E-02
  129 T=  3828. E= -.16645768E+04 F= -.18020609E+04 E0= -.18020609E+04  EK= 0.11976E+03 SP= 0.18E+02 SK= 0.55E-01
       N       E                     dE             d eps       ncg     rms          rms(c)
DAV:   1    -0.180156710255E+04    0.49390E+00   -0.11554E-01  2792   0.318E+00    0.156E-01
RMM:   2    -0.180157768724E+04   -0.10585E-01   -0.11041E-01  1568   0.323E-01    0.866E-02
RMM:   3    -0.180157794426E+04   -0.25703E-03   -0.49642E-03  1780   0.548E-02    0.615E-02
RMM:   4    -0.180157789862E+04    0.45641E-04   -0.31217E-04  1086   0.160E-02
  130 T=  3833. E= -.16645777E+04 F= -.18015779E+04 E0= -.18015779E+04  EK= 0.11989E+03 SP= 0.17E+02 SK= 0.83E-01
       N       E                     dE             d eps       ncg     rms          rms(c)
DAV:   1    -0.180088029400E+04    0.69765E+00   -0.10873E-01  2768   0.319E+00    0.106E-01
RMM:   2    -0.180089086591E+04   -0.10572E-01   -0.10710E-01  1568   0.318E-01    0.981E-02
RMM:   3    -0.180089110326E+04   -0.23736E-03   -0.49034E-03  1769   0.539E-02    0.794E-02
RMM:   4    -0.180089102882E+04    0.74445E-04   -0.29027E-04  1066   0.154E-02
  131 T=  3835. E= -.16645774E+04 F= -.18008910E+04 E0= -.18008910E+04  EK= 0.11995E+03 SP= 0.16E+02 SK= 0.11E+00
       N       E                     dE             d eps       ncg     rms          rms(c)
DAV:   1    -0.180002294541E+04    0.86816E+00   -0.10928E-01  2784   0.318E+00    0.108E-01
RMM:   2    -0.180003315237E+04   -0.10207E-01   -0.10344E-01  1568   0.311E-01    0.956E-02
RMM:   3    -0.180003343055E+04   -0.27818E-03   -0.48944E-03  1770   0.536E-02    0.774E-02
RMM:   4    -0.180003337180E+04    0.58751E-04   -0.33302E-04  1088   0.166E-02
  132 T=  3835. E= -.16645762E+04 F= -.18000334E+04 E0= -.18000334E+04  EK= 0.11997E+03 SP= 0.15E+02 SK= 0.15E+00
       N       E                     dE             d eps       ncg     rms          rms(c)
DAV:   1    -0.179903915183E+04    0.99428E+00   -0.12845E-01  2792   0.318E+00    0.161E-01
RMM:   2    -0.179904973909E+04   -0.10587E-01   -0.11105E-01  1568   0.324E-01    0.839E-02
RMM:   3    -0.179905001054E+04   -0.27145E-03   -0.50206E-03  1789   0.552E-02    0.598E-02
RMM:   4    -0.179904996694E+04    0.43598E-04   -0.30648E-04  1074   0.158E-02
  133 T=  3835. E= -.16645741E+04 F= -.17990500E+04 E0= -.17990500E+04  EK= 0.11998E+03 SP= 0.14E+02 SK= 0.19E+00
       N       E                     dE             d eps       ncg     rms          rms(c)
DAV:   1    -0.179798245312E+04    0.10676E+01   -0.14022E-01  2768   0.318E+00    0.113E-01
RMM:   2    -0.179799363356E+04   -0.11180E-01   -0.11324E-01  1568   0.329E-01    0.937E-02
RMM:   3    -0.179799388663E+04   -0.25307E-03   -0.51101E-03  1789   0.560E-02    0.760E-02
RMM:   4    -0.179799382309E+04    0.63534E-04   -0.27852E-04  1073   0.147E-02
  134 T=  3837. E= -.16645722E+04 F= -.17979938E+04 E0= -.17979938E+04  EK= 0.12004E+03 SP= 0.13E+02 SK= 0.24E+00
       N       E                     dE             d eps       ncg     rms          rms(c)
DAV:   1    -0.179690848990E+04    0.10854E+01   -0.15864E-01  2768   0.317E+00    0.111E-01
RMM:   2    -0.179692022618E+04   -0.11736E-01   -0.11864E-01  1568   0.333E-01    0.997E-02
RMM:   3    -0.179692050770E+04   -0.28152E-03   -0.54041E-03  1794   0.573E-02    0.824E-02
RMM:   4    -0.179692044809E+04    0.59609E-04   -0.31393E-04  1095   0.158E-02
  135 T=  3843. E= -.16645712E+04 F= -.17969204E+04 E0= -.17969204E+04  EK= 0.12020E+03 SP= 0.12E+02 SK= 0.29E+00
       N       E                     dE             d eps       ncg     rms          rms(c)
DAV:   1    -0.179586994419E+04    0.10506E+01   -0.16382E-01  2776   0.317E+00    0.151E-01
RMM:   2    -0.179588195157E+04   -0.12007E-01   -0.12412E-01  1568   0.339E-01    0.923E-02
RMM:   3    -0.179588225138E+04   -0.29981E-03   -0.56396E-03  1792   0.583E-02    0.694E-02
RMM:   4    -0.179588220538E+04    0.46002E-04   -0.32338E-04  1098   0.160E-02
  136 T=  3853. E= -.16645715E+04 F= -.17958822E+04 E0= -.17958822E+04  EK= 0.12051E+03 SP= 0.10E+02 SK= 0.35E+00
       N       E                     dE             d eps       ncg     rms          rms(c)
DAV:   1    -0.179490958506E+04    0.97267E+00   -0.16290E-01  2792   0.317E+00    0.126E-01
RMM:   2    -0.179492152429E+04   -0.11939E-01   -0.12146E-01  1568   0.337E-01    0.926E-02
RMM:   3    -0.179492181839E+04   -0.29410E-03   -0.56504E-03  1797   0.583E-02    0.735E-02
RMM:   4    -0.179492176355E+04    0.54842E-04   -0.29205E-04  1085   0.149E-02
  137 T=  3869. E= -.16645737E+04 F= -.17949218E+04 E0= -.17949218E+04  EK= 0.12102E+03 SP= 0.89E+01 SK= 0.40E+00
       N       E                     dE             d eps       ncg     rms          rms(c)
DAV:   1    -0.179405718158E+04    0.86464E+00   -0.12912E-01  2768   0.317E+00    0.102E-01
RMM:   2    -0.179406816783E+04   -0.10986E-01   -0.11077E-01  1568   0.321E-01    0.926E-02
RMM:   3    -0.179406850735E+04   -0.33952E-03   -0.56624E-03  1789   0.567E-02    0.770E-02
RMM:   4    -0.179406845347E+04    0.53880E-04   -0.28106E-04  1071   0.147E-02
  138 T=  3892. E= -.16645785E+04 F= -.17940685E+04 E0= -.17940685E+04  EK= 0.12174E+03 SP= 0.73E+01 SK= 0.45E+00
       N       E                     dE             d eps       ncg     rms          rms(c)
DAV:   1    -0.179332372654E+04    0.74478E+00   -0.12019E-01  2800   0.317E+00    0.140E-01
RMM:   2    -0.179333440918E+04   -0.10683E-01   -0.11008E-01  1568   0.321E-01    0.846E-02
RMM:   3    -0.179333474877E+04   -0.33959E-03   -0.55143E-03  1792   0.566E-02    0.635E-02
RMM:   4    -0.179333470870E+04    0.40074E-04   -0.30280E-04  1076   0.154E-02
  139 T=  3921. E= -.16645852E+04 F= -.17933347E+04 E0= -.17933347E+04  EK= 0.12266E+03 SP= 0.56E+01 SK= 0.49E+00
[...]
RMM:   4    -0.178351618726E+04    0.53623E-04   -0.29010E-04  1071   0.152E-02
  966 T=  4209. E= -.16661763E+04 F= -.17835162E+04 E0= -.17835162E+04  EK= 0.13165E+03 SP= -.14E+02 SK= 0.19E-01
       N       E                     dE             d eps       ncg     rms          rms(c)
DAV:   1    -0.178330385914E+04    0.21238E+00   -0.15450E-01  2816   0.330E+00    0.155E-01
RMM:   2    -0.178331666242E+04   -0.12803E-01   -0.13152E-01  1568   0.374E-01    0.931E-02
RMM:   3    -0.178331694504E+04   -0.28261E-03   -0.56974E-03  1790   0.586E-02    0.680E-02
RMM:   4    -0.178331689538E+04    0.49659E-04   -0.31196E-04  1088   0.158E-02
  967 T=  4188. E= -.16661733E+04 F= -.17833169E+04 E0= -.17833169E+04  EK= 0.13101E+03 SP= -.14E+02 SK= 0.40E-01
       N       E                     dE             d eps       ncg     rms          rms(c)
DAV:   1    -0.178313998902E+04    0.17696E+00   -0.18595E-01  2784   0.329E+00    0.135E-01
RMM:   2    -0.178315367225E+04   -0.13683E-01   -0.13884E-01  1568   0.384E-01    0.103E-01
RMM:   3    -0.178315392755E+04   -0.25530E-03   -0.57799E-03  1786   0.595E-02    0.806E-02
RMM:   4    -0.178315386313E+04    0.64423E-04   -0.31821E-04  1095   0.159E-02
  968 T=  4164. E= -.16661692E+04 F= -.17831539E+04 E0= -.17831539E+04  EK= 0.13026E+03 SP= -.13E+02 SK= 0.65E-01
       N       E                     dE             d eps       ncg     rms          rms(c)
DAV:   1    -0.178304397728E+04    0.10995E+00   -0.19802E-01  2768   0.327E+00    0.132E-01
RMM:   2    -0.178305784063E+04   -0.13863E-01   -0.14047E-01  1568   0.386E-01    0.107E-01
RMM:   3    -0.178305811139E+04   -0.27076E-03   -0.59330E-03  1792   0.602E-02    0.834E-02
RMM:   4    -0.178305805028E+04    0.61103E-04   -0.33597E-04  1108   0.164E-02
  969 T=  4138. E= -.16661646E+04 F= -.17830581E+04 E0= -.17830581E+04  EK= 0.12945E+03 SP= -.13E+02 SK= 0.91E-01
       N       E                     dE             d eps       ncg     rms          rms(c)
DAV:   1    -0.178304972480E+04    0.83866E-02   -0.17151E-01  2792   0.326E+00    0.154E-01
RMM:   2    -0.178306346727E+04   -0.13742E-01   -0.14083E-01  1568   0.386E-01    0.993E-02
RMM:   3    -0.178306375303E+04   -0.28576E-03   -0.59267E-03  1793   0.603E-02    0.735E-02
RMM:   4    -0.178306369687E+04    0.56157E-04   -0.33664E-04  1101   0.164E-02
  970 T=  4112. E= -.16661598E+04 F= -.17830637E+04 E0= -.17830637E+04  EK= 0.12863E+03 SP= -.12E+02 SK= 0.12E+00
       N       E                     dE             d eps       ncg     rms          rms(c)
DAV:   1    -0.178318947612E+04   -0.12572E+00   -0.18611E-01  2768   0.326E+00    0.143E-01
RMM:   2    -0.178320374415E+04   -0.14268E-01   -0.14483E-01  1568   0.392E-01    0.104E-01
RMM:   3    -0.178320399215E+04   -0.24800E-03   -0.58883E-03  1791   0.608E-02    0.799E-02
RMM:   4    -0.178320392802E+04    0.64127E-04   -0.31712E-04  1097   0.158E-02
  971 T=  4088. E= -.16661557E+04 F= -.17832039E+04 E0= -.17832039E+04  EK= 0.12787E+03 SP= -.11E+02 SK= 0.14E+00
       N       E                     dE             d eps       ncg     rms          rms(c)
DAV:   1    -0.178349275989E+04   -0.28877E+00   -0.16939E-01  2776   0.325E+00    0.123E-01
RMM:   2    -0.178350604487E+04   -0.13285E-01   -0.13424E-01  1568   0.378E-01    0.107E-01
RMM:   3    -0.178350630044E+04   -0.25558E-03   -0.56427E-03  1796   0.587E-02    0.855E-02
RMM:   4    -0.178350623327E+04    0.67171E-04   -0.31227E-04  1088   0.159E-02
  972 T=  4066. E= -.16661534E+04 F= -.17835062E+04 E0= -.17835062E+04  EK= 0.12720E+03 SP= -.10E+02 SK= 0.16E+00
       N       E                     dE             d eps       ncg     rms          rms(c)
DAV:   1    -0.178397202279E+04   -0.46572E+00   -0.13660E-01  2808   0.325E+00    0.143E-01
RMM:   2    -0.178398462518E+04   -0.12602E-01   -0.12889E-01  1568   0.369E-01    0.955E-02
RMM:   3    -0.178398492284E+04   -0.29766E-03   -0.56383E-03  1802   0.577E-02    0.703E-02
RMM:   4    -0.178398487082E+04    0.52016E-04   -0.30681E-04  1073   0.159E-02
  973 T=  4049. E= -.16661529E+04 F= -.17839849E+04 E0= -.17839849E+04  EK= 0.12665E+03 SP= -.90E+01 SK= 0.17E+00
       N       E                     dE             d eps       ncg     rms          rms(c)
DAV:   1    -0.178462166455E+04   -0.63674E+00   -0.14810E-01  2752   0.326E+00    0.156E-01
RMM:   2    -0.178463507448E+04   -0.13410E-01   -0.13715E-01  1568   0.380E-01    0.941E-02
RMM:   3    -0.178463531936E+04   -0.24488E-03   -0.55262E-03  1793   0.587E-02    0.686E-02
RMM:   4    -0.178463526826E+04    0.51104E-04   -0.29687E-04  1074   0.154E-02
  974 T=  4036. E= -.16661543E+04 F= -.17846353E+04 E0= -.17846353E+04  EK= 0.12625E+03 SP= -.79E+01 SK= 0.18E+00
       N       E                     dE             d eps       ncg     rms          rms(c)
DAV:   1    -0.178542032555E+04   -0.78501E+00   -0.16261E-01  2768   0.327E+00    0.123E-01
RMM:   2    -0.178543389678E+04   -0.13571E-01   -0.13698E-01  1568   0.381E-01    0.111E-01
RMM:   3    -0.178543413739E+04   -0.24060E-03   -0.56220E-03  1794   0.590E-02    0.891E-02
RMM:   4    -0.178543406191E+04    0.75473E-04   -0.32050E-04  1089   0.162E-02
  975 T=  4027. E= -.16661580E+04 F= -.17854341E+04 E0= -.17854341E+04  EK= 0.12596E+03 SP= -.69E+01 SK= 0.19E+00
       N       E                     dE             d eps       ncg     rms          rms(c)
DAV:   1    -0.178632720952E+04   -0.89307E+00   -0.14636E-01  2784   0.328E+00    0.136E-01
RMM:   2    -0.178634004310E+04   -0.12834E-01   -0.13086E-01  1568   0.373E-01    0.107E-01
RMM:   3    -0.178634030951E+04   -0.26640E-03   -0.55037E-03  1793   0.580E-02    0.827E-02
RMM:   4    -0.178634024690E+04    0.62603E-04   -0.36226E-04  1112   0.175E-02
  976 T=  4020. E= -.16661630E+04 F= -.17863402E+04 E0= -.17863402E+04  EK= 0.12576E+03 SP= -.58E+01 SK= 0.20E+00
       N       E                     dE             d eps       ncg     rms          rms(c)
DAV:   1    -0.178728863572E+04   -0.94833E+00   -0.12482E-01  2792   0.329E+00    0.164E-01
RMM:   2    -0.178730140485E+04   -0.12769E-01   -0.13217E-01  1568   0.373E-01    0.951E-02
RMM:   3    -0.178730166352E+04   -0.25867E-03   -0.54907E-03  1783   0.578E-02    0.682E-02
RMM:   4    -0.178730160666E+04    0.56856E-04   -0.33013E-04  1101   0.164E-02
  977 T=  4015. E= -.16661684E+04 F= -.17873016E+04 E0= -.17873016E+04  EK= 0.12560E+03 SP= -.47E+01 SK= 0.20E+00
       N       E                     dE             d eps       ncg     rms          rms(c)
DAV:   1    -0.178824808140E+04   -0.94642E+00   -0.13442E-01  2792   0.331E+00    0.127E-01
RMM:   2    -0.178826123258E+04   -0.13151E-01   -0.13308E-01  1568   0.376E-01    0.110E-01
RMM:   3    -0.178826144312E+04   -0.21054E-03   -0.53595E-03  1777   0.575E-02    0.870E-02
RMM:   4    -0.178826135759E+04    0.85533E-04   -0.33548E-04  1110   0.165E-02
  978 T=  4010. E= -.16661739E+04 F= -.17882614E+04 E0= -.17882614E+04  EK= 0.12543E+03 SP= -.36E+01 SK= 0.20E+00
       N       E                     dE             d eps       ncg     rms          rms(c)
DAV:   1    -0.178915287087E+04   -0.89143E+00   -0.15153E-01  2800   0.331E+00    0.133E-01
RMM:   2    -0.178916607951E+04   -0.13209E-01   -0.13426E-01  1568   0.377E-01    0.112E-01
RMM:   3    -0.178916630674E+04   -0.22723E-03   -0.54413E-03  1776   0.578E-02    0.884E-02
RMM:   4    -0.178916623015E+04    0.76590E-04   -0.38536E-04  1134   0.179E-02
  979 T=  4003. E= -.16661786E+04 F= -.17891662E+04 E0= -.17891662E+04  EK= 0.12520E+03 SP= -.24E+01 SK= 0.21E+00
       N       E                     dE             d eps       ncg     rms          rms(c)
DAV:   1    -0.178995952129E+04   -0.79321E+00   -0.17708E-01  2768   0.332E+00    0.171E-01
RMM:   2    -0.178997363872E+04   -0.14117E-01   -0.14627E-01  1568   0.392E-01    0.109E-01
RMM:   3    -0.178997384704E+04   -0.20833E-03   -0.57456E-03  1780   0.600E-02    0.800E-02
RMM:   4    -0.178997377461E+04    0.72437E-04   -0.41747E-04  1156   0.185E-02
  980 T=  3992. E= -.16661815E+04 F= -.17899738E+04 E0= -.17899738E+04  EK= 0.12488E+03 SP= -.13E+01 SK= 0.21E+00
       N       E                     dE             d eps       ncg     rms          rms(c)
DAV:   1    -0.179064269757E+04   -0.66885E+00   -0.17405E-01  2752   0.333E+00    0.137E-01
RMM:   2    -0.179065715093E+04   -0.14453E-01   -0.14667E-01  1568   0.393E-01    0.119E-01
RMM:   3    -0.179065734539E+04   -0.19447E-03   -0.58349E-03  1779   0.605E-02    0.941E-02
RMM:   4    -0.179065724413E+04    0.10126E-03   -0.41262E-04  1151   0.184E-02    0.565E-02
RMM:   5    -0.179065722634E+04    0.17792E-04   -0.98188E-05   920   0.972E-03
  981 T=  3978. E= -.16661828E+04 F= -.17906572E+04 E0= -.17906572E+04  EK= 0.12444E+03 SP= -.17E+00 SK= 0.20E+00
       N       E                     dE             d eps       ncg     rms          rms(c)
DAV:   1    -0.179118908109E+04   -0.53184E+00   -0.17117E-01  2776   0.333E+00    0.207E-01
RMM:   2    -0.179120381371E+04   -0.14733E-01   -0.15281E-01  1568   0.393E-01    0.834E-02
RMM:   3    -0.179120409680E+04   -0.28309E-03   -0.61941E-03  1795   0.618E-02    0.521E-02
RMM:   4    -0.179120406125E+04    0.35556E-04   -0.36430E-04  1121   0.170E-02
  982 T=  3961. E= -.16661817E+04 F= -.17912041E+04 E0= -.17912041E+04  EK= 0.12389E+03 SP= 0.94E+00 SK= 0.19E+00
       N       E                     dE             d eps       ncg     rms          rms(c)
DAV:   1    -0.179160167409E+04   -0.39758E+00   -0.15286E-01  2792   0.333E+00    0.126E-01
RMM:   2    -0.179161624094E+04   -0.14567E-01   -0.14753E-01  1568   0.389E-01    0.131E-01
RMM:   3    -0.179161642341E+04   -0.18248E-03   -0.60223E-03  1770   0.609E-02    0.108E-01
RMM:   4    -0.179161628523E+04    0.13818E-03   -0.48783E-04  1194   0.197E-02    0.663E-02
RMM:   5    -0.179161625315E+04    0.32079E-04   -0.16034E-04   921   0.122E-02
  983 T=  3940. E= -.16661795E+04 F= -.17916163E+04 E0= -.17916163E+04  EK= 0.12324E+03 SP= 0.20E+01 SK= 0.18E+00
       N       E                     dE             d eps       ncg     rms          rms(c)
DAV:   1    -0.179189377258E+04   -0.27749E+00   -0.15112E-01  2808   0.331E+00    0.197E-01
RMM:   2    -0.179190731265E+04   -0.13540E-01   -0.14141E-01  1568   0.384E-01    0.860E-02
RMM:   3    -0.179190757969E+04   -0.26704E-03   -0.57445E-03  1785   0.605E-02    0.551E-02
RMM:   4    -0.179190754758E+04    0.32109E-04   -0.39497E-04  1130   0.175E-02
  984 T=  3917. E= -.16661759E+04 F= -.17919075E+04 E0= -.17919075E+04  EK= 0.12252E+03 SP= 0.30E+01 SK= 0.16E+00
       N       E                     dE             d eps       ncg     rms          rms(c)
DAV:   1    -0.179208897618E+04   -0.18140E+00   -0.16937E-01  2800   0.330E+00    0.125E-01
RMM:   2    -0.179210380230E+04   -0.14826E-01   -0.14999E-01  1568   0.394E-01    0.127E-01
RMM:   3    -0.179210394599E+04   -0.14369E-03   -0.58674E-03  1774   0.611E-02    0.105E-01
RMM:   4    -0.179210381289E+04    0.13310E-03   -0.43894E-04  1165   0.184E-02    0.676E-02
RMM:   5    -0.179210377269E+04    0.40207E-04   -0.14552E-04   920   0.115E-02
  985 T=  3893. E= -.16661719E+04 F= -.17921038E+04 E0= -.17921038E+04  EK= 0.12178E+03 SP= 0.40E+01 SK= 0.14E+00
       N       E                     dE             d eps       ncg     rms          rms(c)
DAV:   1    -0.179222574525E+04   -0.12193E+00   -0.15635E-01  2760   0.328E+00    0.192E-01
RMM:   2    -0.179223945997E+04   -0.13715E-01   -0.14224E-01  1568   0.380E-01    0.831E-02
RMM:   3    -0.179223976863E+04   -0.30867E-03   -0.61337E-03  1789   0.611E-02    0.533E-02
RMM:   4    -0.179223974308E+04    0.25551E-04   -0.38912E-04  1123   0.171E-02
  986 T=  3870. E= -.16661672E+04 F= -.17922397E+04 E0= -.17922397E+04  EK= 0.12106E+03 SP= 0.49E+01 SK= 0.11E+00
       N       E                     dE             d eps       ncg     rms          rms(c)
DAV:   1    -0.179234541073E+04   -0.10564E+00   -0.12794E-01  2824   0.327E+00    0.124E-01
RMM:   2    -0.179235911302E+04   -0.13702E-01   -0.13919E-01  1568   0.380E-01    0.125E-01
RMM:   3    -0.179235929055E+04   -0.17754E-03   -0.57140E-03  1764   0.593E-02    0.102E-01
RMM:   4    -0.179235915640E+04    0.13415E-03   -0.43247E-04  1163   0.184E-02    0.647E-02
RMM:   5    -0.179235911757E+04    0.38838E-04   -0.16225E-04   922   0.122E-02
  987 T=  3850. E= -.16661624E+04 F= -.17923591E+04 E0= -.17923591E+04  EK= 0.12043E+03 SP= 0.57E+01 SK= 0.85E-01
       N       E                     dE             d eps       ncg     rms          rms(c)
DAV:   1    -0.179249820896E+04   -0.13905E+00   -0.14059E-01  2776   0.325E+00    0.190E-01
RMM:   2    -0.179251087939E+04   -0.12670E-01   -0.13161E-01  1568   0.372E-01    0.775E-02
RMM:   3    -0.179251117643E+04   -0.29703E-03   -0.56221E-03  1776   0.592E-02    0.497E-02
RMM:   4    -0.179251115428E+04    0.22146E-04   -0.34749E-04  1099   0.162E-02
  988 T=  3834. E= -.16661582E+04 F= -.17925112E+04 E0= -.17925112E+04  EK= 0.11995E+03 SP= 0.63E+01 SK= 0.59E-01
       N       E                     dE             d eps       ncg     rms          rms(c)
DAV:   1    -0.179273244743E+04   -0.22127E+00   -0.15708E-01  2784   0.324E+00    0.123E-01
RMM:   2    -0.179274646314E+04   -0.14016E-01   -0.14187E-01  1568   0.386E-01    0.127E-01
RMM:   3    -0.179274660605E+04   -0.14291E-03   -0.56457E-03  1769   0.596E-02    0.105E-01
RMM:   4    -0.179274648288E+04    0.12317E-03   -0.38891E-04  1138   0.175E-02    0.695E-02
RMM:   5    -0.179274644118E+04    0.41699E-04   -0.16001E-04   922   0.122E-02
  989 T=  3826. E= -.16661555E+04 F= -.17927464E+04 E0= -.17927464E+04  EK= 0.11967E+03 SP= 0.69E+01 SK= 0.36E-01
       N       E                     dE             d eps       ncg     rms          rms(c)
DAV:   1    -0.179309903138E+04   -0.35255E+00   -0.15458E-01  2792   0.322E+00    0.188E-01
RMM:   2    -0.179311198967E+04   -0.12958E-01   -0.13417E-01  1568   0.371E-01    0.778E-02
RMM:   3    -0.179311229698E+04   -0.30731E-03   -0.58500E-03  1776   0.594E-02    0.499E-02
RMM:   4    -0.179311227800E+04    0.18977E-04   -0.33863E-04  1094   0.159E-02
  990 T=  3825. E= -.16661546E+04 F= -.17931123E+04 E0= -.17931123E+04  EK= 0.11965E+03 SP= 0.73E+01 SK= 0.18E-01
       N       E                     dE             d eps       ncg     rms          rms(c)
DAV:   1    -0.179363375706E+04   -0.52146E+00   -0.10297E-01  2816   0.323E+00    0.109E-01
RMM:   2    -0.179364628425E+04   -0.12527E-01   -0.12686E-01  1568   0.359E-01    0.116E-01
RMM:   3    -0.179364652431E+04   -0.24006E-03   -0.56888E-03  1765   0.571E-02    0.967E-02
RMM:   4    -0.179364641493E+04    0.10937E-03   -0.34088E-04  1100   0.164E-02    0.641E-02
RMM:   5    -0.179364637640E+04    0.38531E-04   -0.17355E-04   922   0.127E-02
  991 T=  3834. E= -.16661562E+04 F= -.17936464E+04 E0= -.17936464E+04  EK= 0.11992E+03 SP= 0.76E+01 SK= 0.69E-02
       N       E                     dE             d eps       ncg     rms          rms(c)
DAV:   1    -0.179435940136E+04   -0.71299E+00   -0.92364E-02  2816   0.322E+00    0.174E-01
RMM:   2    -0.179437007160E+04   -0.10670E-01   -0.11083E-01  1568   0.340E-01    0.654E-02
RMM:   3    -0.179437040479E+04   -0.33319E-03   -0.52747E-03  1767   0.551E-02    0.399E-02
RMM:   4    -0.179437039072E+04    0.14063E-04   -0.27933E-04  1059   0.144E-02
  992 T=  3852. E= -.16661610E+04 F= -.17943704E+04 E0= -.17943704E+04  EK= 0.12050E+03 SP= 0.77E+01 SK= 0.12E-02
       N       E                     dE             d eps       ncg     rms          rms(c)
DAV:   1    -0.179527394850E+04   -0.90354E+00   -0.10201E-01  2792   0.323E+00    0.107E-01
RMM:   2    -0.179528527238E+04   -0.11324E-01   -0.11460E-01  1568   0.349E-01    0.110E-01
RMM:   3    -0.179528546577E+04   -0.19340E-03   -0.50608E-03  1753   0.544E-02    0.910E-02
RMM:   4    -0.179528536651E+04    0.99263E-04   -0.30654E-04  1069   0.157E-02
  993 T=  3880. E= -.16661693E+04 F= -.17952854E+04 E0= -.17952854E+04  EK= 0.12138E+03 SP= 0.77E+01 SK= 0.56E-04
       N       E                     dE             d eps       ncg     rms          rms(c)
DAV:   1    -0.179636071163E+04   -0.10752E+01   -0.99214E-02  2808   0.324E+00    0.103E-01
RMM:   2    -0.179637097094E+04   -0.10259E-01   -0.10347E-01  1568   0.331E-01    0.970E-02
RMM:   3    -0.179637126666E+04   -0.29572E-03   -0.50145E-03  1759   0.531E-02    0.791E-02
RMM:   4    -0.179637122740E+04    0.39262E-04   -0.30252E-04  1053   0.160E-02
  994 T=  3917. E= -.16661811E+04 F= -.17963712E+04 E0= -.17963712E+04  EK= 0.12252E+03 SP= 0.77E+01 SK= 0.15E-02
       N       E                     dE             d eps       ncg     rms          rms(c)
DAV:   1    -0.179757638296E+04   -0.12051E+01   -0.98234E-02  2856   0.326E+00    0.190E-01
RMM:   2    -0.179758722832E+04   -0.10845E-01   -0.11556E-01  1568   0.349E-01    0.811E-02
RMM:   3    -0.179758750037E+04   -0.27205E-03   -0.52710E-03  1772   0.551E-02    0.505E-02
RMM:   4    -0.179758746135E+04    0.39026E-04   -0.29559E-04  1069   0.157E-02
  995 T=  3959. E= -.16661943E+04 F= -.17975875E+04 E0= -.17975875E+04  EK= 0.12385E+03 SP= 0.75E+01 SK= 0.34E-02
       N       E                     dE             d eps       ncg     rms          rms(c)
DAV:   1    -0.179886536105E+04   -0.12779E+01   -0.10004E-01  2816   0.330E+00    0.106E-01
RMM:   2    -0.179887663886E+04   -0.11278E-01   -0.11355E-01  1568   0.348E-01    0.983E-02
RMM:   3    -0.179887689996E+04   -0.26110E-03   -0.53043E-03  1771   0.550E-02    0.802E-02
RMM:   4    -0.179887682780E+04    0.72159E-04   -0.25862E-04  1040   0.144E-02
  996 T=  4005. E= -.16662092E+04 F= -.17988768E+04 E0= -.17988768E+04  EK= 0.12528E+03 SP= 0.74E+01 SK= 0.41E-02
       N       E                     dE             d eps       ncg     rms          rms(c)
DAV:   1    -0.180015959433E+04   -0.12827E+01   -0.10832E-01  2784   0.331E+00    0.112E-01
RMM:   2    -0.180017095167E+04   -0.11357E-01   -0.11476E-01  1568   0.347E-01    0.998E-02
RMM:   3    -0.180017126280E+04   -0.31113E-03   -0.54411E-03  1792   0.556E-02    0.796E-02
RMM:   4    -0.180017121046E+04    0.52346E-04   -0.30827E-04  1068   0.162E-02
  997 T=  4051. E= -.16662243E+04 F= -.18001712E+04 E0= -.18001712E+04  EK= 0.12672E+03 SP= 0.72E+01 SK= 0.30E-02
       N       E                     dE             d eps       ncg     rms          rms(c)
DAV:   1    -0.180138935409E+04   -0.12181E+01   -0.11532E-01  2808   0.334E+00    0.180E-01
RMM:   2    -0.180140103274E+04   -0.11679E-01   -0.12332E-01  1568   0.360E-01    0.886E-02
RMM:   3    -0.180140134144E+04   -0.30871E-03   -0.56980E-03  1783   0.572E-02    0.589E-02
RMM:   4    -0.180140129485E+04    0.46599E-04   -0.32449E-04  1088   0.164E-02
  998 T=  4094. E= -.16662381E+04 F= -.18014013E+04 E0= -.18014013E+04  EK= 0.12806E+03 SP= 0.71E+01 SK= 0.11E-02
       N       E                     dE             d eps       ncg     rms          rms(c)
DAV:   1    -0.180248964179E+04   -0.10883E+01   -0.11295E-01  2832   0.338E+00    0.111E-01
RMM:   2    -0.180250168296E+04   -0.12041E-01   -0.12153E-01  1568   0.359E-01    0.105E-01
RMM:   3    -0.180250196962E+04   -0.28666E-03   -0.57795E-03  1785   0.572E-02    0.853E-02
RMM:   4    -0.180250188343E+04    0.86185E-04   -0.30020E-04  1078   0.156E-02
  999 T=  4130. E= -.16662506E+04 F= -.18025019E+04 E0= -.18025019E+04  EK= 0.12919E+03 SP= 0.71E+01 SK= 0.49E-05
       N       E                     dE             d eps       ncg     rms          rms(c)
DAV:   1    -0.180340551413E+04   -0.90354E+00   -0.10780E-01  2816   0.339E+00    0.116E-01
RMM:   2    -0.180341730377E+04   -0.11790E-01   -0.11915E-01  1568   0.352E-01    0.100E-01
RMM:   3    -0.180341764796E+04   -0.34418E-03   -0.58445E-03  1780   0.570E-02    0.798E-02
RMM:   4    -0.180341758886E+04    0.59092E-04   -0.32745E-04  1085   0.166E-02
 1000 T=  4157. E= -.16662609E+04 F= -.18034176E+04 E0= -.18034176E+04  EK= 0.13004E+03 SP= 0.71E+01 SK= 0.22E-02
