 243 243   0   0
  0.1311304E+02  0.1499160E-08  0.1499160E-08  0.1637130E-08  0.5000000E-15
   4000.00000000000     
  CAR 
 (Si O2)81  (P1) ~ 3x3x3Supersel (VASP)  
     11.74189244    -21.40472481  301      3.57953795      1.00000000
    -21.405  0.0000E+00  0.0000E+00
    -21.294  0.0000E+00  0.0000E+00
    -21.184  0.0000E+00  0.0000E+00
    -21.073  0.0000E+00  0.0000E+00
    -20.963  0.0000E+00  0.0000E+00
    -20.852  0.0000E+00  0.0000E+00
    -20.742  0.0000E+00  0.0000E+00
    -20.631  0.0000E+00  0.0000E+00
    -20.521  0.0000E+00  0.0000E+00
    -20.410  0.0000E+00  0.0000E+00
    -20.300  0.0000E+00  0.0000E+00
    -20.189  0.1491E-14  0.1640E-15
    -20.079  0.2595E-05  0.2870E-06
    -19.968  0.4155E+00  0.4614E-01
    -19.858  0.1648E+02  0.1877E+01
    -19.747  0.6486E+01  0.2592E+01
    -19.637  0.5492E+01  0.3196E+01
    -19.526  0.7573E+01  0.4028E+01
    -19.416  0.9275E+01  0.5049E+01
    -19.305  0.1179E+02  0.6350E+01
    -19.195  0.1418E+02  0.7913E+01
    -19.084  0.1779E+02  0.9874E+01
    -18.974  0.2087E+02  0.1218E+02
    -18.863  0.2394E+02  0.1482E+02
    -18.753  0.2724E+02  0.1783E+02
    -18.643  0.3112E+02  0.2126E+02
    -18.532  0.3432E+02  0.2506E+02
    -18.422  0.3687E+02  0.2914E+02
    -18.311  0.4133E+02  0.3371E+02
    -18.201  0.4537E+02  0.3873E+02
    -18.090  0.4834E+02  0.4409E+02
    -17.980  0.5112E+02  0.4975E+02
    -17.869  0.5427E+02  0.5576E+02
    -17.759  0.5844E+02  0.6224E+02
    -17.648  0.6070E+02  0.6897E+02
    -17.538  0.6439E+02  0.7611E+02
    -17.427  0.6788E+02  0.8364E+02
    -17.317  0.6915E+02  0.9132E+02
    -17.206  0.7189E+02  0.9930E+02
    -17.096  0.7519E+02  0.1076E+03
    -16.985  0.7664E+02  0.1162E+03
    -16.875  0.7797E+02  0.1248E+03
    -16.764  0.7933E+02  0.1336E+03
    -16.654  0.8033E+02  0.1425E+03
    -16.543  0.8261E+02  0.1517E+03
    -16.433  0.8260E+02  0.1609E+03
    -16.322  0.8292E+02  0.1701E+03
    -16.212  0.8425E+02  0.1795E+03
    -16.101  0.8485E+02  0.1889E+03
    -15.991  0.8420E+02  0.1983E+03
    -15.880  0.8378E+02  0.2076E+03
    -15.770  0.8202E+02  0.2167E+03
    -15.659  0.7992E+02  0.2256E+03
    -15.549  0.7530E+02  0.2340E+03
    -15.438  0.7260E+02  0.2421E+03
    -15.328  0.6960E+02  0.2498E+03
    -15.217  0.6666E+02  0.2573E+03
    -15.107  0.6478E+02  0.2645E+03
    -14.996  0.6042E+02  0.2712E+03
    -14.886  0.5645E+02  0.2775E+03
    -14.775  0.5244E+02  0.2834E+03
    -14.665  0.4951E+02  0.2889E+03
    -14.554  0.4581E+02  0.2940E+03
    -14.444  0.3900E+02  0.2984E+03
    -14.333  0.3423E+02  0.3022E+03
    -14.223  0.3002E+02  0.3056E+03
    -14.112  0.2552E+02  0.3084E+03
    -14.002  0.2223E+02  0.3109E+03
    -13.891  0.1955E+02  0.3131E+03
    -13.781  0.1734E+02  0.3151E+03
    -13.671  0.1511E+02  0.3168E+03
    -13.560  0.1334E+02  0.3183E+03
    -13.450  0.1073E+02  0.3195E+03
    -13.339  0.8538E+01  0.3204E+03
    -13.229  0.7382E+01  0.3212E+03
    -13.118  0.5495E+01  0.3219E+03
    -13.008  0.4924E+01  0.3224E+03
    -12.897  0.4136E+01  0.3229E+03
    -12.787  0.3151E+01  0.3232E+03
    -12.676  0.2101E+01  0.3235E+03
    -12.566  0.1276E+01  0.3236E+03
    -12.455  0.7439E+00  0.3237E+03
    -12.345  0.5331E+00  0.3238E+03
    -12.234  0.4144E+00  0.3238E+03
    -12.124  0.3313E+00  0.3238E+03
    -12.013  0.2827E+00  0.3239E+03
    -11.903  0.3852E+00  0.3239E+03
    -11.792  0.1986E+00  0.3239E+03
    -11.682  0.2215E+00  0.3240E+03
    -11.571  0.1579E+00  0.3240E+03
    -11.461  0.9780E-01  0.3240E+03
    -11.350  0.3939E-02  0.3240E+03
    -11.240  0.7069E-07  0.3240E+03
    -11.129  0.4190E-16  0.3240E+03
    -11.019  0.0000E+00  0.3240E+03
    -10.908  0.0000E+00  0.3240E+03
    -10.798  0.0000E+00  0.3240E+03
    -10.687  0.0000E+00  0.3240E+03
    -10.577  0.0000E+00  0.3240E+03
    -10.466  0.0000E+00  0.3240E+03
    -10.356  0.0000E+00  0.3240E+03
    -10.245  0.0000E+00  0.3240E+03
    -10.135  0.0000E+00  0.3240E+03
    -10.024  0.0000E+00  0.3240E+03
     -9.914  0.0000E+00  0.3240E+03
     -9.803  0.0000E+00  0.3240E+03
     -9.693  0.7529E-15  0.3240E+03
     -9.582  0.2501E-06  0.3240E+03
     -9.472  0.7406E-02  0.3240E+03
     -9.361  0.2742E+00  0.3240E+03
     -9.251  0.6575E+00  0.3241E+03
     -9.140  0.1329E+01  0.3243E+03
     -9.030  0.2167E+01  0.3245E+03
     -8.919  0.4249E+01  0.3250E+03
     -8.809  0.5095E+01  0.3255E+03
     -8.699  0.5869E+01  0.3262E+03
     -8.588  0.7507E+01  0.3270E+03
     -8.478  0.9924E+01  0.3281E+03
     -8.367  0.1198E+02  0.3294E+03
     -8.257  0.1416E+02  0.3310E+03
     -8.146  0.1664E+02  0.3328E+03
     -8.036  0.1987E+02  0.3350E+03
     -7.925  0.2177E+02  0.3374E+03
     -7.815  0.2519E+02  0.3402E+03
     -7.704  0.2796E+02  0.3433E+03
     -7.594  0.2970E+02  0.3466E+03
     -7.483  0.3154E+02  0.3501E+03
     -7.373  0.3390E+02  0.3539E+03
     -7.262  0.3575E+02  0.3579E+03
     -7.152  0.3450E+02  0.3617E+03
     -7.041  0.3591E+02  0.3657E+03
     -6.931  0.3786E+02  0.3699E+03
     -6.820  0.3761E+02  0.3741E+03
     -6.710  0.3962E+02  0.3785E+03
     -6.599  0.3913E+02  0.3828E+03
     -6.489  0.4075E+02  0.3873E+03
     -6.378  0.4163E+02  0.3920E+03
     -6.268  0.4150E+02  0.3966E+03
     -6.157  0.4229E+02  0.4013E+03
     -6.047  0.4490E+02  0.4063E+03
     -5.936  0.4503E+02  0.4113E+03
     -5.826  0.4554E+02  0.4163E+03
     -5.715  0.4662E+02  0.4215E+03
     -5.605  0.4755E+02  0.4268E+03
     -5.494  0.4925E+02  0.4323E+03
     -5.384  0.5101E+02  0.4379E+03
     -5.273  0.5372E+02  0.4439E+03
     -5.163  0.5594E+02  0.4501E+03
     -5.052  0.5778E+02  0.4565E+03
     -4.942  0.6039E+02  0.4632E+03
     -4.831  0.6260E+02  0.4702E+03
     -4.721  0.6559E+02  0.4775E+03
     -4.610  0.6667E+02  0.4849E+03
     -4.500  0.6981E+02  0.4927E+03
     -4.389  0.7332E+02  0.5008E+03
     -4.279  0.7565E+02  0.5092E+03
     -4.168  0.7862E+02  0.5179E+03
     -4.058  0.8233E+02  0.5271E+03
     -3.948  0.8324E+02  0.5363E+03
     -3.837  0.8507E+02  0.5458E+03
     -3.727  0.8641E+02  0.5554E+03
     -3.616  0.8714E+02  0.5651E+03
     -3.506  0.9031E+02  0.5751E+03
     -3.395  0.8993E+02  0.5851E+03
     -3.285  0.9201E+02  0.5953E+03
     -3.174  0.9160E+02  0.6055E+03
     -3.064  0.9270E+02  0.6158E+03
     -2.953  0.9476E+02  0.6264E+03
     -2.843  0.9691E+02  0.6371E+03
     -2.732  0.1003E+03  0.6483E+03
     -2.622  0.1021E+03  0.6596E+03
     -2.511  0.1065E+03  0.6715E+03
     -2.401  0.1109E+03  0.6838E+03
     -2.290  0.1144E+03  0.6965E+03
     -2.180  0.1178E+03  0.7096E+03
     -2.069  0.1227E+03  0.7232E+03
     -1.959  0.1262E+03  0.7372E+03
     -1.848  0.1323E+03  0.7519E+03
     -1.738  0.1361E+03  0.7671E+03
     -1.627  0.1411E+03  0.7827E+03
     -1.517  0.1429E+03  0.7986E+03
     -1.406  0.1452E+03  0.8148E+03
     -1.296  0.1479E+03  0.8312E+03
     -1.185  0.1496E+03  0.8478E+03
     -1.075  0.1523E+03  0.8648E+03
     -0.964  0.1531E+03  0.8818E+03
     -0.854  0.1545E+03  0.8990E+03
     -0.743  0.1563E+03  0.9163E+03
     -0.633  0.1586E+03  0.9340E+03
     -0.522  0.1582E+03  0.9516E+03
     -0.412  0.1582E+03  0.9691E+03
     -0.301  0.1587E+03  0.9868E+03
     -0.191  0.1574E+03  0.1004E+04
     -0.080  0.1586E+03  0.1022E+04
      0.030  0.1557E+03  0.1039E+04
      0.141  0.1550E+03  0.1056E+04
      0.251  0.1522E+03  0.1073E+04
      0.362  0.1491E+03  0.1090E+04
      0.472  0.1465E+03  0.1106E+04
      0.583  0.1422E+03  0.1122E+04
      0.693  0.1386E+03  0.1138E+04
      0.804  0.1347E+03  0.1153E+04
      0.914  0.1309E+03  0.1167E+04
      1.024  0.1256E+03  0.1181E+04
      1.135  0.1186E+03  0.1194E+04
      1.245  0.1101E+03  0.1207E+04
      1.356  0.1050E+03  0.1218E+04
      1.466  0.9783E+02  0.1229E+04
      1.577  0.8821E+02  0.1239E+04
      1.687  0.7776E+02  0.1248E+04
      1.798  0.7096E+02  0.1256E+04
      1.908  0.6304E+02  0.1263E+04
      2.019  0.5534E+02  0.1269E+04
      2.129  0.4742E+02  0.1274E+04
      2.240  0.3977E+02  0.1278E+04
      2.350  0.3476E+02  0.1282E+04
      2.461  0.2724E+02  0.1285E+04
      2.571  0.2246E+02  0.1288E+04
      2.682  0.1901E+02  0.1290E+04
      2.792  0.1463E+02  0.1292E+04
      2.903  0.1140E+02  0.1293E+04
      3.013  0.7832E+01  0.1294E+04
      3.124  0.6069E+01  0.1294E+04
      3.234  0.5217E+01  0.1295E+04
      3.345  0.3288E+01  0.1295E+04
      3.455  0.1851E+01  0.1296E+04
      3.566  0.1431E+01  0.1296E+04
      3.676  0.1515E+01  0.1296E+04
      3.787  0.1401E+01  0.1296E+04
      3.897  0.1685E+01  0.1296E+04
      4.008  0.2146E+01  0.1296E+04
      4.118  0.2440E+01  0.1297E+04
      4.229  0.3053E+01  0.1297E+04
      4.339  0.3507E+01  0.1297E+04
      4.450  0.4601E+01  0.1298E+04
      4.560  0.5526E+01  0.1299E+04
      4.671  0.5958E+01  0.1299E+04
      4.781  0.6775E+01  0.1300E+04
      4.892  0.8273E+01  0.1301E+04
      5.002  0.8976E+01  0.1302E+04
      5.113  0.1062E+02  0.1303E+04
      5.223  0.1314E+02  0.1305E+04
      5.334  0.1406E+02  0.1306E+04
      5.444  0.1451E+02  0.1308E+04
      5.555  0.1778E+02  0.1310E+04
      5.665  0.1874E+02  0.1312E+04
      5.776  0.2018E+02  0.1314E+04
      5.886  0.2083E+02  0.1316E+04
      5.996  0.2342E+02  0.1319E+04
      6.107  0.2627E+02  0.1322E+04
      6.217  0.2812E+02  0.1325E+04
      6.328  0.2803E+02  0.1328E+04
      6.438  0.3013E+02  0.1331E+04
      6.549  0.3139E+02  0.1335E+04
      6.659  0.3213E+02  0.1339E+04
      6.770  0.3457E+02  0.1342E+04
      6.880  0.3651E+02  0.1346E+04
      6.991  0.3801E+02  0.1351E+04
      7.101  0.3963E+02  0.1355E+04
      7.212  0.4239E+02  0.1360E+04
      7.322  0.4301E+02  0.1365E+04
      7.433  0.4514E+02  0.1370E+04
      7.543  0.4786E+02  0.1375E+04
      7.654  0.4969E+02  0.1380E+04
      7.764  0.5009E+02  0.1386E+04
      7.875  0.5290E+02  0.1392E+04
      7.985  0.5595E+02  0.1398E+04
      8.096  0.5874E+02  0.1405E+04
      8.206  0.6042E+02  0.1411E+04
      8.317  0.6205E+02  0.1418E+04
      8.427  0.6497E+02  0.1425E+04
      8.538  0.6644E+02  0.1433E+04
      8.648  0.6874E+02  0.1440E+04
      8.759  0.7117E+02  0.1448E+04
      8.869  0.7492E+02  0.1457E+04
      8.980  0.7643E+02  0.1465E+04
      9.090  0.7778E+02  0.1474E+04
      9.201  0.8094E+02  0.1483E+04
      9.311  0.8199E+02  0.1492E+04
      9.422  0.8330E+02  0.1501E+04
      9.532  0.8692E+02  0.1511E+04
      9.643  0.8636E+02  0.1521E+04
      9.753  0.8525E+02  0.1530E+04
      9.864  0.8373E+02  0.1539E+04
      9.974  0.8051E+02  0.1548E+04
     10.085  0.7867E+02  0.1557E+04
     10.195  0.6801E+02  0.1565E+04
     10.306  0.3024E+02  0.1568E+04
     10.416  0.4531E+00  0.1568E+04
     10.527  0.2635E-05  0.1568E+04
     10.637  0.9427E-15  0.1568E+04
     10.747  0.0000E+00  0.1568E+04
     10.858  0.0000E+00  0.1568E+04
     10.968  0.0000E+00  0.1568E+04
     11.079  0.0000E+00  0.1568E+04
     11.189  0.0000E+00  0.1568E+04
     11.300  0.0000E+00  0.1568E+04
     11.410  0.0000E+00  0.1568E+04
     11.521  0.0000E+00  0.1568E+04
     11.631  0.0000E+00  0.1568E+04
     11.742  0.0000E+00  0.1568E+04
     11.82497520    -21.57992579  301      3.59901833      1.00000000
    -21.580  0.0000E+00  0.0000E+00
    -21.469  0.0000E+00  0.0000E+00
    -21.357  0.0000E+00  0.0000E+00
    -21.246  0.0000E+00  0.0000E+00
    -21.135  0.0000E+00  0.0000E+00
    -21.023  0.0000E+00  0.0000E+00
    -20.912  0.0000E+00  0.0000E+00
    -20.800  0.0000E+00  0.0000E+00
    -20.689  0.0000E+00  0.0000E+00
    -20.578  0.0000E+00  0.0000E+00
    -20.466  0.0000E+00  0.0000E+00
    -20.355  0.9971E-18  0.1110E-18
    -20.244  0.2294E-08  0.2555E-09
    -20.132  0.4046E-03  0.4505E-04
    -20.021  0.1529E-01  0.1748E-02
    -19.910  0.2264E-02  0.2000E-02
    -19.798  0.1571E-06  0.2000E-02
    -19.687  0.5286E-12  0.2000E-02
    -19.576  0.6109E-05  0.2001E-02
    -19.464  0.7216E-02  0.2804E-02
    -19.353  0.1071E-01  0.3996E-02
    -19.242  0.3401E-04  0.4000E-02
    -19.130  0.3717E-02  0.4414E-02
    -19.019  0.2613E-01  0.7323E-02
    -18.908  0.5285E-01  0.1321E-01
    -18.796  0.4316E-01  0.1801E-01
    -18.685  0.4199E-01  0.2269E-01
    -18.573  0.1993E-01  0.2491E-01
    -18.462  0.4386E-01  0.2979E-01
    -18.351  0.5224E-01  0.3561E-01
    -18.239  0.5282E-01  0.4149E-01
    -18.128  0.4946E-01  0.4700E-01
    -18.017  0.6311E-01  0.5402E-01
    -17.905  0.3457E-01  0.5787E-01
    -17.794  0.4837E-01  0.6326E-01
    -17.683  0.3267E-01  0.6690E-01
    -17.571  0.8277E-01  0.7611E-01
    -17.460  0.8603E-01  0.8569E-01
    -17.349  0.6393E-01  0.9281E-01
    -17.237  0.8711E-01  0.1025E+00
    -17.126  0.9050E-01  0.1126E+00
    -17.015  0.8039E-01  0.1215E+00
    -16.903  0.7979E-01  0.1304E+00
    -16.792  0.6902E-01  0.1381E+00
    -16.681  0.9149E-01  0.1483E+00
    -16.569  0.1110E+00  0.1607E+00
    -16.458  0.8185E-01  0.1698E+00
    -16.346  0.9522E-01  0.1804E+00
    -16.235  0.8224E-01  0.1895E+00
    -16.124  0.7094E-01  0.1974E+00
    -16.012  0.7593E-01  0.2059E+00
    -15.901  0.1100E+00  0.2181E+00
    -15.790  0.1094E+00  0.2303E+00
    -15.678  0.8162E-01  0.2394E+00
    -15.567  0.1018E+00  0.2507E+00
    -15.456  0.1241E+00  0.2645E+00
    -15.344  0.9020E-01  0.2746E+00
    -15.233  0.4753E-01  0.2799E+00
    -15.122  0.6127E-01  0.2867E+00
    -15.010  0.6201E-01  0.2936E+00
    -14.899  0.3433E-01  0.2974E+00
    -14.788  0.2270E-01  0.3000E+00
    -14.676  0.2759E-01  0.3030E+00
    -14.565  0.2406E-01  0.3057E+00
    -14.454  0.2801E-01  0.3088E+00
    -14.342  0.2785E-01  0.3119E+00
    -14.231  0.6055E-03  0.3120E+00
    -14.119  0.1579E-03  0.3120E+00
    -14.008  0.1387E-01  0.3136E+00
    -13.897  0.3935E-02  0.3140E+00
    -13.785  0.8188E-03  0.3141E+00
    -13.674  0.1585E-01  0.3159E+00
    -13.563  0.1597E-02  0.3160E+00
    -13.451  0.1491E-01  0.3177E+00
    -13.340  0.2750E-02  0.3180E+00
    -13.229  0.4543E-06  0.3180E+00
    -13.117  0.2397E-02  0.3183E+00
    -13.006  0.1612E-01  0.3201E+00
    -12.895  0.1625E-01  0.3219E+00
    -12.783  0.1152E-02  0.3220E+00
    -12.672  0.2703E-07  0.3220E+00
    -12.561  0.2579E-04  0.3220E+00
    -12.449  0.1016E-01  0.3231E+00
    -12.338  0.7772E-02  0.3240E+00
    -12.227  0.8148E-05  0.3240E+00
    -12.115  0.8964E-12  0.3240E+00
    -12.004  0.0000E+00  0.3240E+00
    -11.893  0.0000E+00  0.3240E+00
    -11.781  0.0000E+00  0.3240E+00
    -11.670  0.0000E+00  0.3240E+00
    -11.558  0.0000E+00  0.3240E+00
    -11.447  0.0000E+00  0.3240E+00
    -11.336  0.0000E+00  0.3240E+00
    -11.224  0.0000E+00  0.3240E+00
    -11.113  0.0000E+00  0.3240E+00
    -11.002  0.0000E+00  0.3240E+00
    -10.890  0.0000E+00  0.3240E+00
    -10.779  0.0000E+00  0.3240E+00
    -10.668  0.0000E+00  0.3240E+00
    -10.556  0.0000E+00  0.3240E+00
    -10.445  0.0000E+00  0.3240E+00
    -10.334  0.0000E+00  0.3240E+00
    -10.222  0.0000E+00  0.3240E+00
    -10.111  0.0000E+00  0.3240E+00
    -10.000  0.0000E+00  0.3240E+00
     -9.888  0.0000E+00  0.3240E+00
     -9.777  0.0000E+00  0.3240E+00
     -9.666  0.0000E+00  0.3240E+00
     -9.554  0.0000E+00  0.3240E+00
     -9.443  0.0000E+00  0.3240E+00
     -9.331  0.0000E+00  0.3240E+00
     -9.220  0.0000E+00  0.3240E+00
     -9.109  0.0000E+00  0.3240E+00
     -8.997  0.0000E+00  0.3240E+00
     -8.886  0.3382E-14  0.3240E+00
     -8.775  0.3488E-06  0.3240E+00
     -8.663  0.3005E-02  0.3243E+00
     -8.552  0.1470E-01  0.3260E+00
     -8.441  0.2060E-02  0.3262E+00
     -8.329  0.1603E-01  0.3280E+00
     -8.218  0.2231E-01  0.3305E+00
     -8.107  0.4409E-01  0.3354E+00
     -7.995  0.2580E-01  0.3383E+00
     -7.884  0.2457E-01  0.3410E+00
     -7.773  0.3776E-01  0.3452E+00
     -7.661  0.2651E-01  0.3481E+00
     -7.550  0.1739E-01  0.3501E+00
     -7.439  0.3407E-01  0.3539E+00
     -7.327  0.4922E-01  0.3594E+00
     -7.216  0.2298E-01  0.3619E+00
     -7.104  0.4682E-01  0.3671E+00
     -6.993  0.3629E-01  0.3712E+00
     -6.882  0.4248E-01  0.3759E+00
     -6.770  0.2320E-01  0.3785E+00
     -6.659  0.4470E-01  0.3835E+00
     -6.548  0.3371E-01  0.3872E+00
     -6.436  0.5403E-01  0.3932E+00
     -6.325  0.3373E-01  0.3970E+00
     -6.214  0.5383E-01  0.4030E+00
     -6.102  0.4943E-01  0.4085E+00
     -5.991  0.4011E-01  0.4130E+00
     -5.880  0.5082E-01  0.4186E+00
     -5.768  0.2213E-01  0.4211E+00
     -5.657  0.4275E-01  0.4258E+00
     -5.546  0.5446E-01  0.4319E+00
     -5.434  0.5488E-01  0.4380E+00
     -5.323  0.3994E-01  0.4425E+00
     -5.212  0.5006E-01  0.4480E+00
     -5.100  0.6337E-01  0.4551E+00
     -4.989  0.8465E-01  0.4645E+00
     -4.877  0.3752E-01  0.4687E+00
     -4.766  0.7987E-01  0.4776E+00
     -4.655  0.6149E-01  0.4844E+00
     -4.543  0.6950E-01  0.4922E+00
     -4.432  0.7561E-01  0.5006E+00
     -4.321  0.8792E-01  0.5104E+00
     -4.209  0.7370E-01  0.5186E+00
     -4.098  0.6298E-01  0.5256E+00
     -3.987  0.1047E+00  0.5373E+00
     -3.875  0.9804E-01  0.5482E+00
     -3.764  0.8600E-01  0.5577E+00
     -3.653  0.9917E-01  0.5688E+00
     -3.541  0.1019E+00  0.5801E+00
     -3.430  0.9785E-01  0.5910E+00
     -3.319  0.9105E-01  0.6012E+00
     -3.207  0.1097E+00  0.6134E+00
     -3.096  0.9078E-01  0.6235E+00
     -2.985  0.9366E-01  0.6339E+00
     -2.873  0.9393E-01  0.6444E+00
     -2.762  0.8397E-01  0.6537E+00
     -2.650  0.7958E-01  0.6626E+00
     -2.539  0.1008E+00  0.6738E+00
     -2.428  0.1025E+00  0.6852E+00
     -2.316  0.1270E+00  0.6994E+00
     -2.205  0.1323E+00  0.7141E+00
     -2.094  0.1228E+00  0.7278E+00
     -1.982  0.1187E+00  0.7410E+00
     -1.871  0.1350E+00  0.7560E+00
     -1.760  0.1418E+00  0.7718E+00
     -1.648  0.1484E+00  0.7884E+00
     -1.537  0.1437E+00  0.8044E+00
     -1.426  0.1580E+00  0.8220E+00
     -1.314  0.1496E+00  0.8386E+00
     -1.203  0.1632E+00  0.8568E+00
     -1.092  0.1397E+00  0.8723E+00
     -0.980  0.1459E+00  0.8886E+00
     -0.869  0.1481E+00  0.9051E+00
     -0.758  0.1608E+00  0.9230E+00
     -0.646  0.1625E+00  0.9411E+00
     -0.535  0.1581E+00  0.9587E+00
     -0.423  0.1508E+00  0.9755E+00
     -0.312  0.1423E+00  0.9913E+00
     -0.201  0.1584E+00  0.1009E+01
     -0.089  0.1458E+00  0.1025E+01
      0.022  0.1637E+00  0.1043E+01
      0.133  0.1593E+00  0.1061E+01
      0.245  0.1370E+00  0.1076E+01
      0.356  0.1811E+00  0.1097E+01
      0.467  0.1570E+00  0.1114E+01
      0.579  0.1310E+00  0.1129E+01
      0.690  0.1347E+00  0.1144E+01
      0.801  0.1510E+00  0.1160E+01
      0.913  0.1240E+00  0.1174E+01
      1.024  0.1449E+00  0.1190E+01
      1.135  0.1263E+00  0.1204E+01
      1.247  0.1096E+00  0.1217E+01
      1.358  0.9897E-01  0.1228E+01
      1.469  0.9991E-01  0.1239E+01
      1.581  0.7845E-01  0.1248E+01
      1.692  0.6395E-01  0.1255E+01
      1.804  0.4967E-01  0.1260E+01
      1.915  0.3989E-01  0.1265E+01
      2.026  0.3162E-01  0.1268E+01
      2.138  0.4344E-01  0.1273E+01
      2.249  0.4372E-01  0.1278E+01
      2.360  0.1733E-02  0.1278E+01
      2.472  0.2340E-01  0.1281E+01
      2.583  0.3296E-01  0.1284E+01
      2.694  0.3068E-01  0.1288E+01
      2.806  0.1440E-01  0.1289E+01
      2.917  0.2230E-01  0.1292E+01
      3.028  0.1752E-02  0.1292E+01
      3.140  0.1274E-01  0.1293E+01
      3.251  0.5151E-02  0.1294E+01
      3.362  0.9351E-02  0.1295E+01
      3.474  0.8583E-02  0.1296E+01
      3.585  0.1220E-04  0.1296E+01
      3.696  0.5660E-08  0.1296E+01
      3.808  0.6008E-03  0.1296E+01
      3.919  0.1567E-01  0.1298E+01
      4.030  0.2782E-02  0.1298E+01
      4.142  0.1589E-01  0.1300E+01
      4.253  0.9787E-03  0.1300E+01
      4.365  0.1807E-07  0.1300E+01
      4.476  0.2008E-04  0.1300E+01
      4.587  0.9622E-02  0.1301E+01
      4.699  0.8311E-02  0.1302E+01
      4.810  0.5484E-02  0.1303E+01
      4.921  0.1241E-01  0.1304E+01
      5.033  0.7880E-04  0.1304E+01
      5.144  0.6726E-02  0.1305E+01
      5.255  0.2600E-01  0.1308E+01
      5.367  0.3425E-02  0.1308E+01
      5.478  0.1453E-01  0.1310E+01
      5.589  0.1644E-01  0.1311E+01
      5.701  0.3790E-01  0.1316E+01
      5.812  0.9508E-02  0.1317E+01
      5.923  0.3417E-01  0.1321E+01
      6.035  0.1318E-01  0.1322E+01
      6.146  0.2211E-01  0.1324E+01
      6.257  0.5069E-01  0.1330E+01
      6.369  0.2737E-01  0.1333E+01
      6.480  0.3993E-01  0.1338E+01
      6.592  0.1722E-01  0.1340E+01
      6.703  0.4617E-01  0.1345E+01
      6.814  0.5066E-01  0.1350E+01
      6.926  0.3304E-01  0.1354E+01
      7.037  0.3306E-01  0.1358E+01
      7.148  0.2250E-01  0.1360E+01
      7.260  0.5154E-01  0.1366E+01
      7.371  0.4707E-01  0.1371E+01
      7.482  0.4644E-01  0.1376E+01
      7.594  0.4647E-01  0.1382E+01
      7.705  0.5242E-01  0.1387E+01
      7.816  0.4606E-01  0.1392E+01
      7.928  0.5383E-01  0.1398E+01
      8.039  0.6057E-01  0.1405E+01
      8.150  0.6605E-01  0.1413E+01
      8.262  0.6213E-01  0.1419E+01
      8.373  0.6173E-01  0.1426E+01
      8.484  0.7845E-01  0.1435E+01
      8.596  0.6392E-01  0.1442E+01
      8.707  0.4760E-01  0.1448E+01
      8.819  0.6239E-01  0.1454E+01
      8.930  0.6828E-01  0.1462E+01
      9.041  0.7927E-01  0.1471E+01
      9.153  0.7494E-01  0.1479E+01
      9.264  0.7532E-01  0.1488E+01
      9.375  0.7351E-01  0.1496E+01
      9.487  0.8377E-01  0.1505E+01
      9.598  0.8191E-01  0.1514E+01
      9.709  0.7616E-01  0.1523E+01
      9.821  0.8512E-01  0.1532E+01
      9.932  0.8740E-01  0.1542E+01
     10.043  0.5995E-01  0.1549E+01
     10.155  0.6781E-01  0.1556E+01
     10.266  0.7370E-01  0.1564E+01
     10.377  0.3203E-01  0.1568E+01
     10.489  0.4330E-03  0.1568E+01
     10.600  0.2303E-08  0.1568E+01
     10.711  0.0000E+00  0.1568E+01
     10.823  0.0000E+00  0.1568E+01
     10.934  0.0000E+00  0.1568E+01
     11.046  0.0000E+00  0.1568E+01
     11.157  0.0000E+00  0.1568E+01
     11.268  0.0000E+00  0.1568E+01
     11.380  0.0000E+00  0.1568E+01
     11.491  0.0000E+00  0.1568E+01
     11.602  0.0000E+00  0.1568E+01
     11.714  0.0000E+00  0.1568E+01
     11.825  0.0000E+00  0.1568E+01
