  243  243 1000    1
  0.1311304E+02  0.1499160E-08  0.1499160E-08  0.1637130E-08  0.5000000E-15
   4000.00000000000     
  CAR 
 (Si O2)81  (P1) ~ 3x3x3Supersel (VASP)  
   1296      1    784
 
  0.0000000E+00  0.0000000E+00  0.0000000E+00  0.1000000E+01
    1      -20.061521
    2      -19.455515
    3      -19.101298
    4      -19.010475
    5      -18.994453
    6      -18.945447
    7      -18.916584
    8      -18.863964
    9      -18.847408
   10      -18.745396
   11      -18.730736
   12      -18.683462
   13      -18.567983
   14      -18.496085
   15      -18.473117
   16      -18.454379
   17      -18.394246
   18      -18.365257
   19      -18.316686
   20      -18.302651
   21      -18.252055
   22      -18.196091
   23      -18.179932
   24      -18.120999
   25      -18.082570
   26      -18.069459
   27      -18.060896
   28      -17.988908
   29      -17.919663
   30      -17.882207
   31      -17.839474
   32      -17.803659
   33      -17.753911
   34      -17.658175
   35      -17.647889
   36      -17.622425
   37      -17.608337
   38      -17.582183
   39      -17.552932
   40      -17.538505
   41      -17.534081
   42      -17.514846
   43      -17.465931
   44      -17.442819
   45      -17.397943
   46      -17.389107
   47      -17.339777
   48      -17.304793
   49      -17.294035
   50      -17.283826
   51      -17.271832
   52      -17.220322
   53      -17.200846
   54      -17.190500
   55      -17.172927
   56      -17.144108
   57      -17.113756
   58      -17.100731
   59      -17.085518
   60      -17.047282
   61      -17.024476
   62      -16.997644
   63      -16.951623
   64      -16.932427
   65      -16.920936
   66      -16.916546
   67      -16.864259
   68      -16.837409
   69      -16.799406
   70      -16.782823
   71      -16.747919
   72      -16.739850
   73      -16.713262
   74      -16.685522
   75      -16.667178
   76      -16.657558
   77      -16.644931
   78      -16.624688
   79      -16.601995
   80      -16.596748
   81      -16.570086
   82      -16.540499
   83      -16.516001
   84      -16.497520
   85      -16.449839
   86      -16.441683
   87      -16.425626
   88      -16.415252
   89      -16.398029
   90      -16.353624
   91      -16.332384
   92      -16.320083
   93      -16.304955
   94      -16.279844
   95      -16.230753
   96      -16.218140
   97      -16.188912
   98      -16.171665
   99      -16.147080
  100      -16.069570
  101      -16.055215
  102      -16.029419
  103      -16.024995
  104      -15.999637
  105      -15.989825
  106      -15.966723
  107      -15.953123
  108      -15.936943
  109      -15.920261
  110      -15.884985
  111      -15.861329
  112      -15.859835
  113      -15.835945
  114      -15.822081
  115      -15.804761
  116      -15.799571
  117      -15.749326
  118      -15.731507
  119      -15.721936
  120      -15.687103
  121      -15.640380
  122      -15.635972
  123      -15.612314
  124      -15.596415
  125      -15.574824
  126      -15.568059
  127      -15.557848
  128      -15.525625
  129      -15.515171
  130      -15.488519
  131      -15.483027
  132      -15.462249
  133      -15.454766
  134      -15.436388
  135      -15.428614
  136      -15.420802
  137      -15.357494
  138      -15.352998
  139      -15.292993
  140      -15.263237
  141      -15.193522
  142      -15.171891
  143      -15.149159
  144      -15.117426
  145      -15.091810
  146      -15.040155
  147      -15.035282
  148      -14.986686
  149      -14.916165
  150      -14.835344
  151      -14.734803
  152      -14.680539
  153      -14.601251
  154      -14.478564
  155      -14.458940
  156      -14.407111
  157      -14.035552
  158      -13.725709
  159      -13.487577
  160      -13.078103
  161      -12.948418
  162      -12.455205
  163       -8.629252
  164       -8.395399
  165       -8.259134
  166       -8.199735
  167       -8.159764
  168       -8.124208
  169       -8.054268
  170       -7.961997
  171       -7.867899
  172       -7.851688
  173       -7.773704
  174       -7.727102
  175       -7.616612
  176       -7.496735
  177       -7.452888
  178       -7.408243
  179       -7.398391
  180       -7.346486
  181       -7.227794
  182       -7.197023
  183       -7.145555
  184       -7.118633
  185       -7.039691
  186       -6.998671
  187       -6.950415
  188       -6.887860
  189       -6.873429
  190       -6.742348
  191       -6.700522
  192       -6.679668
  193       -6.620532
  194       -6.550849
  195       -6.497243
  196       -6.463299
  197       -6.457896
  198       -6.399994
  199       -6.312924
  200       -6.286043
  201       -6.239341
  202       -6.203620
  203       -6.198845
  204       -6.141405
  205       -6.086246
  206       -6.046197
  207       -5.988782
  208       -5.929179
  209       -5.919208
  210       -5.881105
  211       -5.765329
  212       -5.710005
  213       -5.696248
  214       -5.610325
  215       -5.577683
  216       -5.576215
  217       -5.527599
  218       -5.486821
  219       -5.449941
  220       -5.425286
  221       -5.342137
  222       -5.323390
  223       -5.245892
  224       -5.222000
  225       -5.204950
  226       -5.170000
  227       -5.137846
  228       -5.087710
  229       -5.075902
  230       -5.050151
  231       -5.022125
  232       -5.016213
  233       -5.003440
  234       -4.926530
  235       -4.857228
  236       -4.829129
  237       -4.815510
  238       -4.802148
  239       -4.777498
  240       -4.754184
  241       -4.714814
  242       -4.665504
  243       -4.644467
  244       -4.627751
  245       -4.590282
  246       -4.554265
  247       -4.522679
  248       -4.513695
  249       -4.494104
  250       -4.457989
  251       -4.412814
  252       -4.402596
  253       -4.374494
  254       -4.361925
  255       -4.351668
  256       -4.298558
  257       -4.289858
  258       -4.277788
  259       -4.241083
  260       -4.196786
  261       -4.170558
  262       -4.138000
  263       -4.111180
  264       -4.069615
  265       -4.043382
  266       -4.024725
  267       -4.013692
  268       -4.005349
  269       -3.994632
  270       -3.980303
  271       -3.968701
  272       -3.913296
  273       -3.901039
  274       -3.891517
  275       -3.878984
  276       -3.846249
  277       -3.808670
  278       -3.796913
  279       -3.768897
  280       -3.758512
  281       -3.718750
  282       -3.702169
  283       -3.695874
  284       -3.663431
  285       -3.649847
  286       -3.637337
  287       -3.610373
  288       -3.598884
  289       -3.577462
  290       -3.544716
  291       -3.533269
  292       -3.512799
  293       -3.494398
  294       -3.482023
  295       -3.449223
  296       -3.436366
  297       -3.406016
  298       -3.376250
  299       -3.364409
  300       -3.345223
  301       -3.311312
  302       -3.295116
  303       -3.284097
  304       -3.264256
  305       -3.258006
  306       -3.249825
  307       -3.196497
  308       -3.195436
  309       -3.170965
  310       -3.148828
  311       -3.125685
  312       -3.092528
  313       -3.080390
  314       -3.064835
  315       -3.038286
  316       -2.999758
  317       -2.991184
  318       -2.969932
  319       -2.959714
  320       -2.944719
  321       -2.935068
  322       -2.905064
  323       -2.852504
  324       -2.833296
  325       -2.804289
  326       -2.795998
  327       -2.768776
  328       -2.754004
  329       -2.722564
  330       -2.701978
  331       -2.678772
  332       -2.640774
  333       -2.607390
  334       -2.593526
  335       -2.586750
  336       -2.571491
  337       -2.550106
  338       -2.528952
  339       -2.505824
  340       -2.488130
  341       -2.461891
  342       -2.434854
  343       -2.428948
  344       -2.418389
  345       -2.395940
  346       -2.387308
  347       -2.358116
  348       -2.356529
  349       -2.327395
  350       -2.319834
  351       -2.306447
  352       -2.286982
  353       -2.276588
  354       -2.260106
  355       -2.244976
  356       -2.233917
  357       -2.232447
  358       -2.192230
  359       -2.173505
  360       -2.154163
  361       -2.152048
  362       -2.124346
  363       -2.117104
  364       -2.111749
  365       -2.089149
  366       -2.060773
  367       -2.039564
  368       -2.037953
  369       -2.002923
  370       -1.998191
  371       -1.988233
  372       -1.971854
  373       -1.949385
  374       -1.922281
  375       -1.919930
  376       -1.905294
  377       -1.898481
  378       -1.883264
  379       -1.864500
  380       -1.855840
  381       -1.827557
  382       -1.804363
  383       -1.798357
  384       -1.794919
  385       -1.773598
  386       -1.771025
  387       -1.751154
  388       -1.741933
  389       -1.724561
  390       -1.723080
  391       -1.692460
  392       -1.675210
  393       -1.665322
  394       -1.658259
  395       -1.652005
  396       -1.629824
  397       -1.615394
  398       -1.608624
  399       -1.592813
  400       -1.583344
  401       -1.565641
  402       -1.545086
  403       -1.527035
  404       -1.507865
  405       -1.505700
  406       -1.495281
  407       -1.480849
  408       -1.461363
  409       -1.449502
  410       -1.446674
  411       -1.432122
  412       -1.422969
  413       -1.405065
  414       -1.399160
  415       -1.392493
  416       -1.355384
  417       -1.345010
  418       -1.332608
  419       -1.311976
  420       -1.308756
  421       -1.306877
  422       -1.290487
  423       -1.278635
  424       -1.263802
  425       -1.261867
  426       -1.254716
  427       -1.235771
  428       -1.225776
  429       -1.197677
  430       -1.177206
  431       -1.169519
  432       -1.158163
  433       -1.143939
  434       -1.119895
  435       -1.106236
  436       -1.101612
  437       -1.085652
  438       -1.077094
  439       -1.062539
  440       -1.057520
  441       -1.032224
  442       -1.023390
  443       -1.002742
  444       -0.987753
  445       -0.973821
  446       -0.968340
  447       -0.947029
  448       -0.936506
  449       -0.927680
  450       -0.906328
  451       -0.901069
  452       -0.874950
  453       -0.860809
  454       -0.852772
  455       -0.842711
  456       -0.841860
  457       -0.819738
  458       -0.816969
  459       -0.801479
  460       -0.793099
  461       -0.767187
  462       -0.754260
  463       -0.744465
  464       -0.723812
  465       -0.718931
  466       -0.706618
  467       -0.688937
  468       -0.679556
  469       -0.670520
  470       -0.657957
  471       -0.645688
  472       -0.641242
  473       -0.620059
  474       -0.610414
  475       -0.602784
  476       -0.590283
  477       -0.574777
  478       -0.553699
  479       -0.544335
  480       -0.530727
  481       -0.519884
  482       -0.506933
  483       -0.500212
  484       -0.484031
  485       -0.457474
  486       -0.449833
  487       -0.440708
  488       -0.431882
  489       -0.413738
  490       -0.411269
  491       -0.373786
  492       -0.368398
  493       -0.350546
  494       -0.337078
  495       -0.324411
  496       -0.307191
  497       -0.303204
  498       -0.291444
  499       -0.279993
  500       -0.270772
  501       -0.251498
  502       -0.237424
  503       -0.235449
  504       -0.216363
  505       -0.198565
  506       -0.186357
  507       -0.174824
  508       -0.159394
  509       -0.139003
  510       -0.130417
  511       -0.112770
  512       -0.099722
  513       -0.092473
  514       -0.077575
  515       -0.061368
  516       -0.052100
  517       -0.048380
  518       -0.033081
  519       -0.020395
  520        0.001167
  521        0.004644
  522        0.017005
  523        0.031564
  524        0.042980
  525        0.057395
  526        0.072502
  527        0.082652
  528        0.094327
  529        0.107092
  530        0.122490
  531        0.131589
  532        0.138795
  533        0.152036
  534        0.168355
  535        0.198491
  536        0.212680
  537        0.222445
  538        0.234604
  539        0.243126
  540        0.273412
  541        0.281109
  542        0.289466
  543        0.294397
  544        0.302041
  545        0.312395
  546        0.320956
  547        0.337595
  548        0.343281
  549        0.357334
  550        0.359961
  551        0.382324
  552        0.401141
  553        0.410920
  554        0.419903
  555        0.436517
  556        0.443071
  557        0.456930
  558        0.476061
  559        0.480451
  560        0.497319
  561        0.524228
  562        0.540762
  563        0.551748
  564        0.576657
  565        0.584421
  566        0.592714
  567        0.598088
  568        0.621697
  569        0.639015
  570        0.664341
  571        0.678821
  572        0.681454
  573        0.697598
  574        0.712465
  575        0.731826
  576        0.738400
  577        0.755241
  578        0.766662
  579        0.775898
  580        0.781355
  581        0.808117
  582        0.814756
  583        0.832547
  584        0.851804
  585        0.869910
  586        0.895488
  587        0.914667
  588        0.925646
  589        0.934505
  590        0.944590
  591        0.947033
  592        0.959692
  593        0.969503
  594        0.996997
  595        1.016089
  596        1.037226
  597        1.046626
  598        1.061271
  599        1.064692
  600        1.079887
  601        1.110880
  602        1.125506
  603        1.140180
  604        1.143802
  605        1.187446
  606        1.205778
  607        1.215049
  608        1.228295
  609        1.243636
  610        1.262935
  611        1.299324
  612        1.307121
  613        1.328948
  614        1.358804
  615        1.374216
  616        1.381206
  617        1.416732
  618        1.423161
  619        1.442597
  620        1.460741
  621        1.506351
  622        1.530480
  623        1.566232
  624        1.572973
  625        1.598054
  626        1.601683
  627        1.653168
  628        1.706992
  629        1.732743
  630        1.783744
  631        1.812982
  632        1.890113
  633        1.914480
  634        1.973350
  635        2.074759
  636        2.083429
  637        2.156204
  638        2.162551
  639        2.195704
  640        2.434054
  641        2.486404
  642        2.511822
  643        2.618392
  644        2.653157
  645        2.793743
  646        2.870120
  647        3.119711
  648        3.360497
  649        3.872582
  650        4.085180
  651        4.583979
  652        4.827994
  653        5.156541
  654        5.222357
  655        5.445734
  656        5.579790
  657        5.633372
  658        5.659995
  659        5.827218
  660        5.873309
  661        5.936093
  662        6.111604
  663        6.163038
  664        6.196000
  665        6.225838
  666        6.276494
  667        6.379594
  668        6.398567
  669        6.447371
  670        6.584119
  671        6.623627
  672        6.681699
  673        6.709591
  674        6.734358
  675        6.777839
  676        6.834107
  677        6.876208
  678        6.976862
  679        7.003490
  680        7.092389
  681        7.189364
  682        7.225005
  683        7.226671
  684        7.277935
  685        7.330014
  686        7.378333
  687        7.391278
  688        7.451802
  689        7.512134
  690        7.516381
  691        7.579345
  692        7.644233
  693        7.652808
  694        7.704911
  695        7.725501
  696        7.795176
  697        7.830071
  698        7.851301
  699        7.899986
  700        7.938625
  701        7.976521
  702        8.017738
  703        8.023869
  704        8.079452
  705        8.081386
  706        8.117056
  707        8.163793
  708        8.189009
  709        8.226841
  710        8.256301
  711        8.283509
  712        8.307683
  713        8.372579
  714        8.374811
  715        8.403359
  716        8.443646
  717        8.455162
  718        8.466982
  719        8.529140
  720        8.532185
  721        8.569168
  722        8.606184
  723        8.674135
  724        8.700594
  725        8.732375
  726        8.748396
  727        8.808937
  728        8.829760
  729        8.840542
  730        8.896551
  731        8.926045
  732        8.939222
  733        8.959629
  734        8.984506
  735        9.007036
  736        9.041796
  737        9.076772
  738        9.115655
  739        9.121790
  740        9.144908
  741        9.175407
  742        9.195703
  743        9.225794
  744        9.260112
  745        9.285538
  746        9.299427
  747        9.342479
  748        9.361600
  749        9.402832
  750        9.408516
  751        9.430838
  752        9.471673
  753        9.479310
  754        9.506352
  755        9.534825
  756        9.556978
  757        9.576169
  758        9.603627
  759        9.646851
  760        9.659743
  761        9.692848
  762        9.711905
  763        9.739076
  764        9.757696
  765        9.766370
  766        9.812995
  767        9.832658
  768        9.858237
  769        9.865868
  770        9.893268
  771        9.917984
  772        9.936630
  773        9.988384
  774       10.022301
  775       10.038768
  776       10.095047
  777       10.114726
  778       10.135095
  779       10.164618
  780       10.196824
  781       10.216700
  782       10.242476
  783       10.272572
  784       10.306571
