       N       E                     dE             d eps       ncg     rms          rms(c)
DAV:   1     0.777644925405E+04    0.77764E+04   -0.59000E+05  1584   0.124E+03
DAV:   2    -0.131848251950E+04   -0.90949E+04   -0.88518E+04  1872   0.323E+02
DAV:   3    -0.203732266023E+04   -0.71884E+03   -0.71269E+03  1816   0.979E+01
DAV:   4    -0.205250795086E+04   -0.15185E+02   -0.15115E+02  1856   0.145E+01
DAV:   5    -0.205290133050E+04   -0.39338E+00   -0.39257E+00  1816   0.213E+00    0.123E+02
RMM:   6    -0.178829662305E+04    0.26460E+03   -0.11262E+03  1568   0.325E+01    0.490E+01
RMM:   7    -0.178478253944E+04    0.35141E+01   -0.43964E+01  1594   0.556E+00    0.257E+01
RMM:   8    -0.178349841961E+04    0.12841E+01   -0.10400E+01  1568   0.413E+00    0.442E+00
RMM:   9    -0.178329767384E+04    0.20075E+00   -0.12378E+00  1569   0.102E+00    0.175E+00
RMM:  10    -0.178334624503E+04   -0.48571E-01   -0.59653E-01  1575   0.664E-01    0.126E+00
RMM:  11    -0.178334274076E+04    0.35043E-02   -0.83283E-02  1568   0.295E-01    0.383E-01
RMM:  12    -0.178334463854E+04   -0.18978E-02   -0.26422E-02  1570   0.153E-01    0.188E-01
RMM:  13    -0.178334398160E+04    0.65694E-03   -0.73126E-03  1598   0.702E-02    0.848E-02
RMM:  14    -0.178334392020E+04    0.61397E-04   -0.20120E-03  1455   0.351E-02    0.392E-02
RMM:  15    -0.178334390744E+04    0.12756E-04   -0.55583E-04  1289   0.201E-02
    1 T=  4008. E= -.16579554E+04 F= -.17833439E+04 E0= -.17833439E+04  EK= 0.12539E+03 SP= 0.00E+00 SK= 0.17E-05
       N       E                     dE             d eps       ncg     rms          rms(c)
DAV:   1    -0.178384357460E+04   -0.49965E+00   -0.15373E+02  1680   0.168E+01    0.404E+00
RMM:   2    -0.178416966583E+04   -0.32609E+00   -0.39707E+00  1568   0.240E+00    0.138E+00
RMM:   3    -0.178411944679E+04    0.50219E-01   -0.10501E-01  1581   0.357E-01    0.800E-01
RMM:   4    -0.178410395922E+04    0.15488E-01   -0.77346E-02  1568   0.262E-01    0.187E-01
RMM:   5    -0.178410332236E+04    0.63686E-03   -0.34809E-03  1588   0.518E-02    0.948E-02
RMM:   6    -0.178410315318E+04    0.16918E-03   -0.62069E-04  1303   0.205E-02    0.442E-02
RMM:   7    -0.178410307708E+04    0.76098E-04   -0.28464E-04  1030   0.154E-02
    2 T=  4032. E= -.16579600E+04 F= -.17841031E+04 E0= -.17841031E+04  EK= 0.12614E+03 SP= 0.65E-02 SK= 0.58E-04
       N       E                     dE             d eps       ncg     rms          rms(c)
DAV:   1    -0.178481583150E+04   -0.71268E+00   -0.75866E-01  1816   0.372E+00    0.674E-01
RMM:   2    -0.178488188457E+04   -0.66053E-01   -0.70403E-01  1568   0.996E-01    0.467E-01
RMM:   3    -0.178487649932E+04    0.53852E-02   -0.12007E-02  1697   0.984E-02    0.330E-01
RMM:   4    -0.178487506644E+04    0.14329E-02   -0.55329E-03  1565   0.705E-02    0.140E-01
RMM:   5    -0.178487503638E+04    0.30062E-04   -0.21858E-04   934   0.153E-02
    3 T=  4056. E= -.16579637E+04 F= -.17848750E+04 E0= -.17848750E+04  EK= 0.12687E+03 SP= 0.38E-01 SK= 0.46E-03
       N       E                     dE             d eps       ncg     rms          rms(c)
DAV:   1    -0.178563618900E+04   -0.76112E+00   -0.28887E-01  2792   0.332E+00    0.208E-01
RMM:   2    -0.178565395866E+04   -0.17770E-01   -0.18278E-01  1568   0.429E-01    0.123E-01
RMM:   3    -0.178565414022E+04   -0.18156E-03   -0.77284E-03  1786   0.708E-02    0.927E-02
RMM:   4    -0.178565402982E+04    0.11040E-03   -0.51460E-04  1198   0.200E-02    0.533E-02
RMM:   5    -0.178565401346E+04    0.16367E-04   -0.79169E-05   920   0.849E-03
    4 T=  4078. E= -.16579686E+04 F= -.17856540E+04 E0= -.17856540E+04  EK= 0.12757E+03 SP= 0.11E+00 SK= 0.18E-02
       N       E                     dE             d eps       ncg     rms          rms(c)
DAV:   1    -0.178641762226E+04   -0.76359E+00   -0.10145E-01  2936   0.332E+00    0.178E-01
RMM:   2    -0.178642831953E+04   -0.10697E-01   -0.11284E-01  1568   0.335E-01    0.870E-02
RMM:   3    -0.178642860415E+04   -0.28462E-03   -0.56382E-03  1777   0.562E-02    0.616E-02
RMM:   4    -0.178642854266E+04    0.61489E-04   -0.29253E-04  1066   0.156E-02
    5 T=  4098. E= -.16579750E+04 F= -.17864285E+04 E0= -.17864285E+04  EK= 0.12820E+03 SP= 0.25E+00 SK= 0.48E-02
       N       E                     dE             d eps       ncg     rms          rms(c)
DAV:   1    -0.178717191232E+04   -0.74331E+00   -0.80060E-02  2848   0.332E+00    0.118E-01
RMM:   2    -0.178718254341E+04   -0.10631E-01   -0.10897E-01  1568   0.335E-01    0.982E-02
RMM:   3    -0.178718278505E+04   -0.24164E-03   -0.52280E-03  1752   0.546E-02    0.800E-02
RMM:   4    -0.178718270477E+04    0.80280E-04   -0.27669E-04  1062   0.145E-02
    6 T=  4115. E= -.16579821E+04 F= -.17871827E+04 E0= -.17871827E+04  EK= 0.12873E+03 SP= 0.46E+00 SK= 0.11E-01
       N       E                     dE             d eps       ncg     rms          rms(c)
DAV:   1    -0.178788601982E+04   -0.70323E+00   -0.77127E-02  2832   0.331E+00    0.109E-01
RMM:   2    -0.178789567147E+04   -0.96516E-02   -0.97949E-02  1568   0.314E-01    0.877E-02
RMM:   3    -0.178789598695E+04   -0.31548E-03   -0.51143E-03  1762   0.528E-02    0.691E-02
RMM:   4    -0.178789594552E+04    0.41426E-04   -0.28535E-04  1058   0.154E-02
    7 T=  4128. E= -.16579886E+04 F= -.17878959E+04 E0= -.17878959E+04  EK= 0.12913E+03 SP= 0.76E+00 SK= 0.20E-01
       N       E                     dE             d eps       ncg     rms          rms(c)
DAV:   1    -0.178853646496E+04   -0.64048E+00   -0.97129E-02  2848   0.333E+00    0.164E-01
RMM:   2    -0.178854753687E+04   -0.11072E-01   -0.11651E-01  1568   0.341E-01    0.856E-02
RMM:   3    -0.178854782688E+04   -0.29001E-03   -0.55389E-03  1795   0.564E-02    0.591E-02
RMM:   4    -0.178854777494E+04    0.51939E-04   -0.30559E-04  1083   0.156E-02
    8 T=  4136. E= -.16579930E+04 F= -.17885478E+04 E0= -.17885478E+04  EK= 0.12936E+03 SP= 0.12E+01 SK= 0.33E-01
       N       E                     dE             d eps       ncg     rms          rms(c)
DAV:   1    -0.178910720133E+04   -0.55937E+00   -0.96895E-02  2872   0.335E+00    0.109E-01
RMM:   2    -0.178911792477E+04   -0.10723E-01   -0.10834E-01  1568   0.329E-01    0.881E-02
RMM:   3    -0.178911824678E+04   -0.32201E-03   -0.55722E-03  1792   0.555E-02    0.711E-02
RMM:   4    -0.178911819189E+04    0.54896E-04   -0.24854E-04  1048   0.138E-02
    9 T=  4137. E= -.16579965E+04 F= -.17891182E+04 E0= -.17891182E+04  EK= 0.12941E+03 SP= 0.17E+01 SK= 0.50E-01
       N       E                     dE             d eps       ncg     rms          rms(c)
DAV:   1    -0.178957813368E+04   -0.45989E+00   -0.83251E-02  2840   0.334E+00    0.110E-01
RMM:   2    -0.178958873853E+04   -0.10605E-01   -0.10765E-01  1568   0.323E-01    0.899E-02
RMM:   3    -0.178958909244E+04   -0.35391E-03   -0.57005E-03  1784   0.555E-02    0.717E-02
RMM:   4    -0.178958903463E+04    0.57802E-04   -0.28318E-04  1065   0.150E-02
   10 T=  4132. E= -.16579991E+04 F= -.17895890E+04 E0= -.17895890E+04  EK= 0.12925E+03 SP= 0.23E+01 SK= 0.71E-01
       N       E                     dE             d eps       ncg     rms          rms(c)
DAV:   1    -0.178993505126E+04   -0.34596E+00   -0.97096E-02  2816   0.334E+00    0.151E-01
RMM:   2    -0.178994570207E+04   -0.10651E-01   -0.11070E-01  1568   0.328E-01    0.816E-02
RMM:   3    -0.178994603233E+04   -0.33026E-03   -0.55778E-03  1794   0.560E-02    0.582E-02
RMM:   4    -0.178994598709E+04    0.45233E-04   -0.28776E-04  1066   0.151E-02
   11 T=  4120. E= -.16579997E+04 F= -.17899460E+04 E0= -.17899460E+04  EK= 0.12887E+03 SP= 0.30E+01 SK= 0.93E-01
       N       E                     dE             d eps       ncg     rms          rms(c)
DAV:   1    -0.179017013794E+04   -0.22411E+00   -0.92209E-02  2880   0.334E+00    0.116E-01
RMM:   2    -0.179018097571E+04   -0.10838E-01   -0.11025E-01  1568   0.327E-01    0.913E-02
RMM:   3    -0.179018128553E+04   -0.30982E-03   -0.55847E-03  1793   0.560E-02    0.720E-02
RMM:   4    -0.179018122038E+04    0.65153E-04   -0.27235E-04  1062   0.145E-02
   12 T=  4101. E= -.16579987E+04 F= -.17901812E+04 E0= -.17901812E+04  EK= 0.12828E+03 SP= 0.38E+01 SK= 0.11E+00
       N       E                     dE             d eps       ncg     rms          rms(c)
DAV:   1    -0.179028168447E+04   -0.10040E+00   -0.91008E-02  2840   0.332E+00    0.104E-01
RMM:   2    -0.179029232097E+04   -0.10636E-01   -0.10746E-01  1568   0.320E-01    0.869E-02
RMM:   3    -0.179029269764E+04   -0.37666E-03   -0.58560E-03  1794   0.564E-02    0.713E-02
RMM:   4    -0.179029264423E+04    0.53404E-04   -0.27563E-04  1059   0.148E-02
   13 T=  4076. E= -.16579964E+04 F= -.17902926E+04 E0= -.17902926E+04  EK= 0.12750E+03 SP= 0.47E+01 SK= 0.13E+00
       N       E                     dE             d eps       ncg     rms          rms(c)
DAV:   1    -0.179026970046E+04    0.22997E-01   -0.10680E-01  2816   0.331E+00    0.148E-01
RMM:   2    -0.179028072603E+04   -0.11026E-01   -0.11437E-01  1568   0.331E-01    0.855E-02
RMM:   3    -0.179028106890E+04   -0.34287E-03   -0.58243E-03  1805   0.576E-02    0.630E-02
RMM:   4    -0.179028101876E+04    0.50132E-04   -0.30363E-04  1081   0.155E-02
   14 T=  4045. E= -.16579924E+04 F= -.17902810E+04 E0= -.17902810E+04  EK= 0.12654E+03 SP= 0.56E+01 SK= 0.15E+00
       N       E                     dE             d eps       ncg     rms          rms(c)
DAV:   1    -0.179013881729E+04    0.14225E+00   -0.11141E-01  2832   0.331E+00    0.118E-01
RMM:   2    -0.179014971564E+04   -0.10898E-01   -0.11083E-01  1568   0.328E-01    0.869E-02
RMM:   3    -0.179015003228E+04   -0.31665E-03   -0.55925E-03  1797   0.568E-02    0.696E-02
RMM:   4    -0.179014997568E+04    0.56602E-04   -0.26625E-04  1061   0.142E-02
   15 T=  4010. E= -.16579875E+04 F= -.17901500E+04 E0= -.17901500E+04  EK= 0.12543E+03 SP= 0.66E+01 SK= 0.16E+00
       N       E                     dE             d eps       ncg     rms          rms(c)
DAV:   1    -0.178989564156E+04    0.25439E+00   -0.10068E-01  2880   0.329E+00    0.101E-01
RMM:   2    -0.178990615180E+04   -0.10510E-01   -0.10607E-01  1568   0.318E-01    0.865E-02
RMM:   3    -0.178990651012E+04   -0.35832E-03   -0.56919E-03  1803   0.563E-02    0.721E-02
RMM:   4    -0.178990645279E+04    0.57340E-04   -0.26153E-04  1056   0.142E-02
   16 T=  3971. E= -.16579823E+04 F= -.17899065E+04 E0= -.17899065E+04  EK= 0.12421E+03 SP= 0.76E+01 SK= 0.15E+00
       N       E                     dE             d eps       ncg     rms          rms(c)
DAV:   1    -0.178954852489E+04    0.35799E+00   -0.10012E-01  2864   0.327E+00    0.134E-01
RMM:   2    -0.178955878800E+04   -0.10263E-01   -0.10575E-01  1568   0.317E-01    0.799E-02
RMM:   3    -0.178955913483E+04   -0.34682E-03   -0.55326E-03  1796   0.558E-02    0.604E-02
RMM:   4    -0.178955909015E+04    0.44677E-04   -0.28027E-04  1068   0.148E-02
   17 T=  3930. E= -.16579761E+04 F= -.17895591E+04 E0= -.17895591E+04  EK= 0.12292E+03 SP= 0.85E+01 SK= 0.14E+00
       N       E                     dE             d eps       ncg     rms          rms(c)
DAV:   1    -0.178910947190E+04    0.44966E+00   -0.98591E-02  2824   0.325E+00    0.123E-01
RMM:   2    -0.178912007653E+04   -0.10605E-01   -0.10834E-01  1568   0.319E-01    0.848E-02
RMM:   3    -0.178912039806E+04   -0.32153E-03   -0.54707E-03  1788   0.558E-02    0.660E-02
RMM:   4    -0.178912034488E+04    0.53178E-04   -0.26999E-04  1066   0.144E-02
   18 T=  3887. E= -.16579695E+04 F= -.17891203E+04 E0= -.17891203E+04  EK= 0.12160E+03 SP= 0.94E+01 SK= 0.12E+00
       N       E                     dE             d eps       ncg     rms          rms(c)
DAV:   1    -0.178859553655E+04    0.52486E+00   -0.98743E-02  2824   0.323E+00    0.105E-01
RMM:   2    -0.178860594580E+04   -0.10409E-01   -0.10535E-01  1568   0.314E-01    0.873E-02
RMM:   3    -0.178860629032E+04   -0.34452E-03   -0.55345E-03  1787   0.556E-02    0.715E-02
RMM:   4    -0.178860623489E+04    0.55433E-04   -0.27467E-04  1072   0.146E-02
   19 T=  3846. E= -.16579627E+04 F= -.17886062E+04 E0= -.17886062E+04  EK= 0.12031E+03 SP= 0.10E+02 SK= 0.93E-01
       N       E                     dE             d eps       ncg     rms          rms(c)
DAV:   1    -0.178802653259E+04    0.57976E+00   -0.10821E-01  2824   0.320E+00    0.127E-01
RMM:   2    -0.178803700328E+04   -0.10471E-01   -0.10742E-01  1568   0.318E-01    0.871E-02
RMM:   3    -0.178803733798E+04   -0.33471E-03   -0.55461E-03  1790   0.561E-02    0.676E-02
RMM:   4    -0.178803728573E+04    0.52256E-04   -0.29492E-04  1074   0.152E-02
   20 T=  3807. E= -.16579558E+04 F= -.17880373E+04 E0= -.17880373E+04  EK= 0.11907E+03 SP= 0.11E+02 SK= 0.63E-01
       N       E                     dE             d eps       ncg     rms          rms(c)
DAV:   1    -0.178742714953E+04    0.61019E+00   -0.12484E-01  2824   0.319E+00    0.126E-01
RMM:   2    -0.178743799929E+04   -0.10850E-01   -0.11099E-01  1568   0.324E-01    0.897E-02
RMM:   3    -0.178743831211E+04   -0.31282E-03   -0.55501E-03  1791   0.565E-02    0.699E-02
RMM:   4    -0.178743825453E+04    0.57578E-04   -0.28758E-04  1075   0.150E-02
   21 T=  3771. E= -.16579491E+04 F= -.17874383E+04 E0= -.17874383E+04  EK= 0.11796E+03 SP= 0.11E+02 SK= 0.35E-01
       N       E                     dE             d eps       ncg     rms          rms(c)
DAV:   1    -0.178682730605E+04    0.61101E+00   -0.13325E-01  2808   0.317E+00    0.111E-01
RMM:   2    -0.178683855118E+04   -0.11245E-01   -0.11397E-01  1568   0.328E-01    0.947E-02
RMM:   3    -0.178683886617E+04   -0.31499E-03   -0.56236E-03  1806   0.568E-02    0.768E-02
RMM:   4    -0.178683880271E+04    0.63457E-04   -0.27898E-04  1061   0.149E-02
   22 T=  3741. E= -.16579434E+04 F= -.17868388E+04 E0= -.17868388E+04  EK= 0.11702E+03 SP= 0.12E+02 SK= 0.12E-01
       N       E                     dE             d eps       ncg     rms          rms(c)
DAV:   1    -0.178626141789E+04    0.57745E+00   -0.11727E-01  2824   0.315E+00    0.125E-01
RMM:   2    -0.178627240035E+04   -0.10982E-01   -0.11225E-01  1568   0.324E-01    0.921E-02
RMM:   3    -0.178627273531E+04   -0.33496E-03   -0.56883E-03  1797   0.568E-02    0.715E-02
RMM:   4    -0.178627268156E+04    0.53749E-04   -0.29811E-04  1070   0.154E-02
   23 T=  3718. E= -.16579390E+04 F= -.17862727E+04 E0= -.17862727E+04  EK= 0.11629E+03 SP= 0.12E+02 SK= 0.67E-03
       N       E                     dE             d eps       ncg     rms          rms(c)
DAV:   1    -0.178576459229E+04    0.50814E+00   -0.10939E-01  2808   0.314E+00    0.129E-01
RMM:   2    -0.178577543815E+04   -0.10846E-01   -0.11122E-01  1568   0.322E-01    0.884E-02
RMM:   3    -0.178577578864E+04   -0.35049E-03   -0.58122E-03  1797   0.569E-02    0.673E-02
RMM:   4    -0.178577573698E+04    0.51655E-04   -0.28792E-04  1065   0.150E-02
   24 T=  3703. E= -.16579359E+04 F= -.17857757E+04 E0= -.17857757E+04  EK= 0.11584E+03 SP= 0.12E+02 SK= 0.41E-02
       N       E                     dE             d eps       ncg     rms          rms(c)
DAV:   1    -0.178537322730E+04    0.40256E+00   -0.12415E-01  2816   0.313E+00    0.114E-01
RMM:   2    -0.178538387201E+04   -0.10645E-01   -0.10812E-01  1568   0.325E-01    0.927E-02
RMM:   3    -0.178538416802E+04   -0.29601E-03   -0.53693E-03  1799   0.558E-02    0.742E-02
RMM:   4    -0.178538410867E+04    0.59351E-04   -0.27278E-04  1060   0.147E-02
   25 T=  3699. E= -.16579348E+04 F= -.17853841E+04 E0= -.17853841E+04  EK= 0.11570E+03 SP= 0.12E+02 SK= 0.25E-01
       N       E                     dE             d eps       ncg     rms          rms(c)
DAV:   1    -0.178511953647E+04    0.26463E+00   -0.13188E-01  2776   0.313E+00    0.119E-01
RMM:   2    -0.178513051250E+04   -0.10976E-01   -0.11180E-01  1568   0.330E-01    0.939E-02
RMM:   3    -0.178513081255E+04   -0.30004E-03   -0.54875E-03  1802   0.565E-02    0.751E-02
RMM:   4    -0.178513075508E+04    0.57467E-04   -0.28278E-04  1064   0.150E-02
   26 T=  3706. E= -.16579361E+04 F= -.17851308E+04 E0= -.17851308E+04  EK= 0.11592E+03 SP= 0.11E+02 SK= 0.62E-01
       N       E                     dE             d eps       ncg     rms          rms(c)
DAV:   1    -0.178503090281E+04    0.99910E-01   -0.12108E-01  2808   0.312E+00    0.123E-01
RMM:   2    -0.178504198648E+04   -0.11084E-01   -0.11322E-01  1568   0.330E-01    0.911E-02
RMM:   3    -0.178504231459E+04   -0.32811E-03   -0.56984E-03  1799   0.570E-02    0.710E-02
RMM:   4    -0.178504226124E+04    0.53343E-04   -0.28025E-04  1062   0.148E-02
   27 T=  3724. E= -.16579408E+04 F= -.17850423E+04 E0= -.17850423E+04  EK= 0.11651E+03 SP= 0.10E+02 SK= 0.11E+00
       N       E                     dE             d eps       ncg     rms          rms(c)
DAV:   1    -0.178512189359E+04   -0.79579E-01   -0.10268E-01  2856   0.313E+00    0.114E-01
RMM:   2    -0.178513243650E+04   -0.10543E-01   -0.10723E-01  1568   0.323E-01    0.861E-02
RMM:   3    -0.178513278536E+04   -0.34886E-03   -0.56685E-03  1804   0.563E-02    0.678E-02
RMM:   4    -0.178513273361E+04    0.51752E-04   -0.25886E-04  1052   0.142E-02
   28 T=  3755. E= -.16579482E+04 F= -.17851327E+04 E0= -.17851327E+04  EK= 0.11747E+03 SP= 0.95E+01 SK= 0.18E+00
       N       E                     dE             d eps       ncg     rms          rms(c)
DAV:   1    -0.178539379376E+04   -0.26101E+00   -0.11019E-01  2800   0.315E+00    0.116E-01
RMM:   2    -0.178540459392E+04   -0.10800E-01   -0.10971E-01  1568   0.329E-01    0.883E-02
RMM:   3    -0.178540491480E+04   -0.32088E-03   -0.55238E-03  1808   0.562E-02    0.697E-02
RMM:   4    -0.178540486230E+04    0.52497E-04   -0.25178E-04  1039   0.141E-02
   29 T=  3798. E= -.16579591E+04 F= -.17854049E+04 E0= -.17854049E+04  EK= 0.11881E+03 SP= 0.84E+01 SK= 0.24E+00
       N       E                     dE             d eps       ncg     rms          rms(c)
DAV:   1    -0.178583325166E+04   -0.42834E+00   -0.14271E-01  2832   0.317E+00    0.121E-01
RMM:   2    -0.178584485067E+04   -0.11599E-01   -0.11804E-01  1568   0.344E-01    0.932E-02
RMM:   3    -0.178584515211E+04   -0.30145E-03   -0.56094E-03  1803   0.577E-02    0.738E-02
RMM:   4    -0.178584509695E+04    0.55162E-04   -0.27931E-04  1067   0.149E-02
   30 T=  3851. E= -.16579730E+04 F= -.17858451E+04 E0= -.17858451E+04  EK= 0.12047E+03 SP= 0.71E+01 SK= 0.29E+00
       N       E                     dE             d eps       ncg     rms          rms(c)
DAV:   1    -0.178641142609E+04   -0.56627E+00   -0.14214E-01  2816   0.320E+00    0.116E-01
RMM:   2    -0.178642350059E+04   -0.12074E-01   -0.12252E-01  1568   0.350E-01    0.945E-02
RMM:   3    -0.178642384933E+04   -0.34874E-03   -0.60655E-03  1803   0.592E-02    0.754E-02
RMM:   4    -0.178642379385E+04    0.55486E-04   -0.28184E-04  1068   0.148E-02
   31 T=  3913. E= -.16579890E+04 F= -.17864238E+04 E0= -.17864238E+04  EK= 0.12240E+03 SP= 0.57E+01 SK= 0.34E+00
       N       E                     dE             d eps       ncg     rms          rms(c)
DAV:   1    -0.178708728708E+04   -0.66344E+00   -0.12582E-01  2832   0.323E+00    0.118E-01
RMM:   2    -0.178709929036E+04   -0.12003E-01   -0.12178E-01  1568   0.351E-01    0.942E-02
RMM:   3    -0.178709964825E+04   -0.35789E-03   -0.60713E-03  1799   0.591E-02    0.745E-02
RMM:   4    -0.178709959179E+04    0.56461E-04   -0.30092E-04  1074   0.154E-02
   32 T=  3980. E= -.16580065E+04 F= -.17870996E+04 E0= -.17870996E+04  EK= 0.12451E+03 SP= 0.42E+01 SK= 0.36E+00
       N       E                     dE             d eps       ncg     rms          rms(c)
DAV:   1    -0.178781104685E+04   -0.71140E+00   -0.11927E-01  2808   0.326E+00    0.128E-01
RMM:   2    -0.178782278416E+04   -0.11737E-01   -0.11965E-01  1568   0.352E-01    0.919E-02
RMM:   3    -0.178782312554E+04   -0.34138E-03   -0.59293E-03  1803   0.582E-02    0.702E-02
RMM:   4    -0.178782307337E+04    0.52166E-04   -0.29420E-04  1069   0.152E-02
   33 T=  4051. E= -.16580246E+04 F= -.17878231E+04 E0= -.17878231E+04  EK= 0.12671E+03 SP= 0.27E+01 SK= 0.35E+00
       N       E                     dE             d eps       ncg     rms          rms(c)
DAV:   1    -0.178852954542E+04   -0.70642E+00   -0.13192E-01  2824   0.329E+00    0.129E-01
RMM:   2    -0.178854161568E+04   -0.12070E-01   -0.12303E-01  1568   0.360E-01    0.963E-02
RMM:   3    -0.178854193620E+04   -0.32053E-03   -0.59793E-03  1803   0.586E-02    0.740E-02
RMM:   4    -0.178854187557E+04    0.60633E-04   -0.31008E-04  1079   0.156E-02
   34 T=  4120. E= -.16580427E+04 F= -.17885419E+04 E0= -.17885419E+04  EK= 0.12889E+03 SP= 0.13E+01 SK= 0.32E+00
       N       E                     dE             d eps       ncg     rms          rms(c)
DAV:   1    -0.178919365751E+04   -0.65172E+00   -0.13028E-01  2808   0.333E+00    0.119E-01
RMM:   2    -0.178920606312E+04   -0.12406E-01   -0.12581E-01  1568   0.365E-01    0.103E-01
RMM:   3    -0.178920640110E+04   -0.33798E-03   -0.61988E-03  1787   0.594E-02    0.819E-02
RMM:   4    -0.178920633269E+04    0.68406E-04   -0.32740E-04  1089   0.160E-02
   35 T=  4186. E= -.16580597E+04 F= -.17892063E+04 E0= -.17892063E+04  EK= 0.13094E+03 SP= -.65E-01 SK= 0.27E+00
       N       E                     dE             d eps       ncg     rms          rms(c)
DAV:   1    -0.178976245686E+04   -0.55606E+00   -0.12841E-01  2848   0.335E+00    0.129E-01
RMM:   2    -0.178977506836E+04   -0.12611E-01   -0.12845E-01  1568   0.370E-01    0.103E-01
RMM:   3    -0.178977543034E+04   -0.36198E-03   -0.64354E-03  1801   0.604E-02    0.802E-02
RMM:   4    -0.178977536375E+04    0.66591E-04   -0.36526E-04  1113   0.170E-02
   36 T=  4245. E= -.16580744E+04 F= -.17897754E+04 E0= -.17897754E+04  EK= 0.13278E+03 SP= -.13E+01 SK= 0.20E+00
       N       E                     dE             d eps       ncg     rms          rms(c)
DAV:   1    -0.179020818112E+04   -0.43275E+00   -0.13252E-01  2848   0.338E+00    0.144E-01
RMM:   2    -0.179022131115E+04   -0.13130E-01   -0.13442E-01  1568   0.378E-01    0.997E-02
RMM:   3    -0.179022167957E+04   -0.36842E-03   -0.66429E-03  1802   0.614E-02    0.746E-02
RMM:   4    -0.179022161604E+04    0.63525E-04   -0.35495E-04  1104   0.167E-02
   37 T=  4293. E= -.16580865E+04 F= -.17902216E+04 E0= -.17902216E+04  EK= 0.13430E+03 SP= -.23E+01 SK= 0.13E+00
       N       E                     dE             d eps       ncg     rms          rms(c)
DAV:   1    -0.179051772829E+04   -0.29605E+00   -0.15391E-01  2832   0.340E+00    0.131E-01
RMM:   2    -0.179053134556E+04   -0.13617E-01   -0.13815E-01  1568   0.385E-01    0.104E-01
RMM:   3    -0.179053168682E+04   -0.34127E-03   -0.66744E-03  1794   0.618E-02    0.815E-02
RMM:   4    -0.179053161514E+04    0.71685E-04   -0.36028E-04  1105   0.167E-02
   38 T=  4331. E= -.16580952E+04 F= -.17905316E+04 E0= -.17905316E+04  EK= 0.13546E+03 SP= -.31E+01 SK= 0.73E-01
       N       E                     dE             d eps       ncg     rms          rms(c)
DAV:   1    -0.179069239789E+04   -0.16071E+00   -0.16757E-01  2800   0.341E+00    0.131E-01
RMM:   2    -0.179070658364E+04   -0.14186E-01   -0.14382E-01  1568   0.392E-01    0.108E-01
RMM:   3    -0.179070694258E+04   -0.35895E-03   -0.69104E-03  1795   0.631E-02    0.858E-02
RMM:   4    -0.179070687036E+04    0.72222E-04   -0.38635E-04  1118   0.174E-02
   39 T=  4355. E= -.16581011E+04 F= -.17907069E+04 E0= -.17907069E+04  EK= 0.13622E+03 SP= -.36E+01 SK= 0.27E-01
       N       E                     dE             d eps       ncg     rms          rms(c)
DAV:   1    -0.179074610386E+04   -0.39161E-01   -0.13896E-01  2848   0.341E+00    0.140E-01
RMM:   2    -0.179075988896E+04   -0.13785E-01   -0.14076E-01  1568   0.386E-01    0.101E-01
RMM:   3    -0.179076030045E+04   -0.41149E-03   -0.71572E-03  1798   0.630E-02    0.764E-02
RMM:   4    -0.179076023759E+04    0.62862E-04   -0.37810E-04  1113   0.170E-02
   40 T=  4366. E= -.16581037E+04 F= -.17907602E+04 E0= -.17907602E+04  EK= 0.13657E+03 SP= -.39E+01 SK= 0.27E-02
       N       E                     dE             d eps       ncg     rms          rms(c)
DAV:   1    -0.179070100304E+04    0.59297E-01   -0.14426E-01  2824   0.342E+00    0.138E-01
RMM:   2    -0.179071481712E+04   -0.13814E-01   -0.14040E-01  1568   0.389E-01    0.968E-02
RMM:   3    -0.179071520467E+04   -0.38754E-03   -0.70258E-03  1800   0.630E-02    0.742E-02
RMM:   4    -0.179071514252E+04    0.62147E-04   -0.35258E-04  1103   0.163E-02
   41 T=  4364. E= -.16581040E+04 F= -.17907151E+04 E0= -.17907151E+04  EK= 0.13651E+03 SP= -.39E+01 SK= 0.38E-02
       N       E                     dE             d eps       ncg     rms          rms(c)
DAV:   1    -0.179058540156E+04    0.12980E+00   -0.13802E-01  2824   0.342E+00    0.128E-01
RMM:   2    -0.179059909525E+04   -0.13694E-01   -0.13837E-01  1568   0.388E-01    0.995E-02
RMM:   3    -0.179059946785E+04   -0.37260E-03   -0.68987E-03  1800   0.624E-02    0.789E-02
RMM:   4    -0.179059940442E+04    0.63424E-04   -0.34173E-04  1100   0.159E-02
   42 T=  4350. E= -.16581021E+04 F= -.17905994E+04 E0= -.17905994E+04  EK= 0.13607E+03 SP= -.36E+01 SK= 0.30E-01
       N       E                     dE             d eps       ncg     rms          rms(c)
DAV:   1    -0.179042720593E+04    0.17226E+00   -0.14318E-01  2840   0.340E+00    0.137E-01
RMM:   2    -0.179044120578E+04   -0.14000E-01   -0.14222E-01  1568   0.392E-01    0.986E-02
RMM:   3    -0.179044160462E+04   -0.39884E-03   -0.70884E-03  1797   0.634E-02    0.773E-02
RMM:   4    -0.179044154626E+04    0.58356E-04   -0.35728E-04  1109   0.164E-02
   43 T=  4326. E= -.16580985E+04 F= -.17904415E+04 E0= -.17904415E+04  EK= 0.13531E+03 SP= -.30E+01 SK= 0.77E-01
       N       E                     dE             d eps       ncg     rms          rms(c)
DAV:   1    -0.179025241538E+04    0.18919E+00   -0.14589E-01  2824   0.340E+00    0.134E-01
RMM:   2    -0.179026673915E+04   -0.14324E-01   -0.14548E-01  1568   0.393E-01    0.973E-02
RMM:   3    -0.179026716599E+04   -0.42684E-03   -0.74098E-03  1805   0.643E-02    0.766E-02
RMM:   4    -0.179026710492E+04    0.61062E-04   -0.34437E-04  1104   0.160E-02
   44 T=  4292. E= -.16580936E+04 F= -.17902671E+04 E0= -.17902671E+04  EK= 0.13426E+03 SP= -.22E+01 SK= 0.14E+00
       N       E                     dE             d eps       ncg     rms          rms(c)
DAV:   1    -0.179008191539E+04    0.18525E+00   -0.13548E-01  2848   0.338E+00    0.124E-01
RMM:   2    -0.179009562420E+04   -0.13709E-01   -0.13852E-01  1568   0.386E-01    0.965E-02
RMM:   3    -0.179009605031E+04   -0.42612E-03   -0.72530E-03  1802   0.633E-02    0.776E-02
RMM:   4    -0.179009598811E+04    0.62203E-04   -0.34068E-04  1108   0.159E-02
   45 T=  4251. E= -.16580878E+04 F= -.17900960E+04 E0= -.17900960E+04  EK= 0.13298E+03 SP= -.12E+01 SK= 0.21E+00
       N       E                     dE             d eps       ncg     rms          rms(c)
DAV:   1    -0.178992890677E+04    0.16714E+00   -0.11021E-01  2848   0.337E+00    0.133E-01
RMM:   2    -0.178994150655E+04   -0.12600E-01   -0.12805E-01  1568   0.374E-01    0.897E-02
RMM:   3    -0.178994190866E+04   -0.40210E-03   -0.66932E-03  1793   0.607E-02    0.693E-02
RMM:   4    -0.178994185704E+04    0.51617E-04   -0.31995E-04  1086   0.156E-02
   46 T=  4205. E= -.16580817E+04 F= -.17899419E+04 E0= -.17899419E+04  EK= 0.13153E+03 SP= 0.49E-01 SK= 0.28E+00
       N       E                     dE             d eps       ncg     rms          rms(c)
DAV:   1    -0.178979963409E+04    0.14227E+00   -0.97262E-02  2808   0.335E+00    0.130E-01
RMM:   2    -0.178981154095E+04   -0.11907E-01   -0.12111E-01  1568   0.366E-01    0.877E-02
RMM:   3    -0.178981190495E+04   -0.36400E-03   -0.62110E-03  1798   0.585E-02    0.671E-02
RMM:   4    -0.178981185290E+04    0.52054E-04   -0.28717E-04  1070   0.148E-02
   47 T=  4154. E= -.16580753E+04 F= -.17898119E+04 E0= -.17898119E+04  EK= 0.12995E+03 SP= 0.14E+01 SK= 0.34E+00
       N       E                     dE             d eps       ncg     rms          rms(c)
DAV:   1    -0.178969510982E+04    0.11680E+00   -0.93470E-02  2888   0.332E+00    0.119E-01
RMM:   2    -0.178970669962E+04   -0.11590E-01   -0.11724E-01  1568   0.361E-01    0.902E-02
RMM:   3    -0.178970706137E+04   -0.36175E-03   -0.61007E-03  1796   0.579E-02    0.709E-02
RMM:   4    -0.178970700534E+04    0.56033E-04   -0.28311E-04  1057   0.149E-02
   48 T=  4101. E= -.16580687E+04 F= -.17897070E+04 E0= -.17897070E+04  EK= 0.12830E+03 SP= 0.30E+01 SK= 0.39E+00
       N       E                     dE             d eps       ncg     rms          rms(c)
DAV:   1    -0.178961138838E+04    0.95673E-01   -0.10619E-01  2800   0.330E+00    0.125E-01
RMM:   2    -0.178962333972E+04   -0.11951E-01   -0.12133E-01  1568   0.365E-01    0.917E-02
RMM:   3    -0.178962370597E+04   -0.36625E-03   -0.61802E-03  1806   0.589E-02    0.718E-02
RMM:   4    -0.178962365010E+04    0.55871E-04   -0.30258E-04  1072   0.154E-02
   49 T=  4047. E= -.16580619E+04 F= -.17896237E+04 E0= -.17896237E+04  EK= 0.12660E+03 SP= 0.45E+01 SK= 0.42E+00
       N       E                     dE             d eps       ncg     rms          rms(c)
DAV:   1    -0.178954346830E+04    0.80238E-01   -0.99982E-02  2824   0.329E+00    0.125E-01
RMM:   2    -0.178955537658E+04   -0.11908E-01   -0.12103E-01  1568   0.362E-01    0.913E-02
RMM:   3    -0.178955574999E+04   -0.37342E-03   -0.62531E-03  1798   0.588E-02    0.708E-02
RMM:   4    -0.178955569377E+04    0.56225E-04   -0.29964E-04  1070   0.154E-02
   50 T=  3993. E= -.16580549E+04 F= -.17895557E+04 E0= -.17895557E+04  EK= 0.12490E+03 SP= 0.62E+01 SK= 0.43E+00
       N       E                     dE             d eps       ncg     rms          rms(c)
DAV:   1    -0.178948626745E+04    0.69483E-01   -0.10756E-01  2800   0.326E+00    0.124E-01
RMM:   2    -0.178949788018E+04   -0.11613E-01   -0.11785E-01  1568   0.359E-01    0.918E-02
RMM:   3    -0.178949821694E+04   -0.33676E-03   -0.59545E-03  1801   0.578E-02    0.716E-02
RMM:   4    -0.178949815954E+04    0.57391E-04   -0.29801E-04  1075   0.153E-02
   51 T=  3940. E= -.16580478E+04 F= -.17894982E+04 E0= -.17894982E+04  EK= 0.12325E+03 SP= 0.78E+01 SK= 0.41E+00
       N       E                     dE             d eps       ncg     rms          rms(c)
DAV:   1    -0.178943801080E+04    0.60206E-01   -0.91183E-02  2792   0.324E+00    0.119E-01
RMM:   2    -0.178944900287E+04   -0.10992E-01   -0.11151E-01  1568   0.350E-01    0.923E-02
RMM:   3    -0.178944932785E+04   -0.32499E-03   -0.56691E-03  1794   0.561E-02    0.721E-02
RMM:   4    -0.178944926974E+04    0.58112E-04   -0.29573E-04  1069   0.153E-02
   52 T=  3889. E= -.16580409E+04 F= -.17894493E+04 E0= -.17894493E+04  EK= 0.12166E+03 SP= 0.94E+01 SK= 0.38E+00
       N       E                     dE             d eps       ncg     rms          rms(c)
DAV:   1    -0.178939950133E+04    0.49827E-01   -0.96880E-02  2848   0.322E+00    0.126E-01
RMM:   2    -0.178941061771E+04   -0.11116E-01   -0.11329E-01  1568   0.351E-01    0.915E-02
RMM:   3    -0.178941095972E+04   -0.34201E-03   -0.58103E-03  1797   0.568E-02    0.703E-02
RMM:   4    -0.178941090308E+04    0.56641E-04   -0.30688E-04  1069   0.156E-02
   53 T=  3842. E= -.16580341E+04 F= -.17894109E+04 E0= -.17894109E+04  EK= 0.12019E+03 SP= 0.11E+02 SK= 0.33E+00
       N       E                     dE             d eps       ncg     rms          rms(c)
DAV:   1    -0.178937864640E+04    0.32313E-01   -0.11391E-01  2808   0.320E+00    0.128E-01
RMM:   2    -0.178939030927E+04   -0.11663E-01   -0.11888E-01  1568   0.357E-01    0.915E-02
RMM:   3    -0.178939066274E+04   -0.35347E-03   -0.60854E-03  1806   0.583E-02    0.707E-02
RMM:   4    -0.178939060527E+04    0.57462E-04   -0.30221E-04  1072   0.153E-02
   54 T=  3800. E= -.16580275E+04 F= -.17893906E+04 E0= -.17893906E+04  EK= 0.11887E+03 SP= 0.12E+02 SK= 0.27E+00
       N       E                     dE             d eps       ncg     rms          rms(c)
DAV:   1    -0.178938985205E+04    0.81068E-03   -0.10474E-01  2800   0.319E+00    0.110E-01
RMM:   2    -0.178940114672E+04   -0.11295E-01   -0.11416E-01  1568   0.348E-01    0.953E-02
RMM:   3    -0.178940148900E+04   -0.34228E-03   -0.58816E-03  1793   0.570E-02    0.769E-02
RMM:   4    -0.178940142735E+04    0.61652E-04   -0.29281E-04  1063   0.151E-02
   55 T=  3764. E= -.16580218E+04 F= -.17894014E+04 E0= -.17894014E+04  EK= 0.11774E+03 SP= 0.13E+02 SK= 0.20E+00
       N       E                     dE             d eps       ncg     rms          rms(c)
DAV:   1    -0.178944904439E+04   -0.47555E-01   -0.87723E-02  2840   0.317E+00    0.118E-01
RMM:   2    -0.178945945343E+04   -0.10409E-01   -0.10588E-01  1568   0.335E-01    0.876E-02
RMM:   3    -0.178945981195E+04   -0.35852E-03   -0.57130E-03  1795   0.553E-02    0.680E-02
RMM:   4    -0.178945976291E+04    0.49045E-04   -0.28798E-04  1057   0.151E-02
   56 T=  3735. E= -.16580170E+04 F= -.17894598E+04 E0= -.17894598E+04  EK= 0.11684E+03 SP= 0.14E+02 SK= 0.14E+00
       N       E                     dE             d eps       ncg     rms          rms(c)
DAV:   1    -0.178957420671E+04   -0.11439E+00   -0.93886E-02  2816   0.316E+00    0.134E-01
RMM:   2    -0.178958458629E+04   -0.10380E-01   -0.10661E-01  1568   0.336E-01    0.803E-02
RMM:   3    -0.178958492049E+04   -0.33419E-03   -0.55528E-03  1802   0.552E-02    0.597E-02
RMM:   4    -0.178958487487E+04    0.45618E-04   -0.25872E-04  1039   0.142E-02
   57 T=  3715. E= -.16580136E+04 F= -.17895849E+04 E0= -.17895849E+04  EK= 0.11620E+03 SP= 0.15E+02 SK= 0.83E-01
       N       E                     dE             d eps       ncg     rms          rms(c)
DAV:   1    -0.178978319438E+04   -0.19827E+00   -0.10865E-01  2832   0.315E+00    0.105E-01
RMM:   2    -0.178979381903E+04   -0.10625E-01   -0.10719E-01  1568   0.338E-01    0.899E-02
RMM:   3    -0.178979412834E+04   -0.30930E-03   -0.54850E-03  1800   0.554E-02    0.736E-02
RMM:   4    -0.178979406880E+04    0.59540E-04   -0.25388E-04  1035   0.140E-02
   58 T=  3703. E= -.16580124E+04 F= -.17897941E+04 E0= -.17897941E+04  EK= 0.11585E+03 SP= 0.16E+02 SK= 0.39E-01
       N       E                     dE             d eps       ncg     rms          rms(c)
DAV:   1    -0.179008823699E+04   -0.29411E+00   -0.11872E-01  2800   0.314E+00    0.108E-01
RMM:   2    -0.179009890901E+04   -0.10672E-01   -0.10800E-01  1568   0.336E-01    0.875E-02
RMM:   3    -0.179009925611E+04   -0.34710E-03   -0.56245E-03  1796   0.560E-02    0.709E-02
RMM:   4    -0.179009920837E+04    0.47743E-04   -0.26984E-04  1042   0.146E-02
   59 T=  3702. E= -.16580136E+04 F= -.17900992E+04 E0= -.17900992E+04  EK= 0.11580E+03 SP= 0.16E+02 SK= 0.11E-01
       N       E                     dE             d eps       ncg     rms          rms(c)
DAV:   1    -0.179049281704E+04   -0.39356E+00   -0.10385E-01  2856   0.315E+00    0.135E-01
RMM:   2    -0.179050359697E+04   -0.10780E-01   -0.11085E-01  1568   0.335E-01    0.795E-02
RMM:   3    -0.179050397915E+04   -0.38217E-03   -0.59514E-03  1798   0.568E-02    0.593E-02
RMM:   4    -0.179050393788E+04    0.41264E-04   -0.27108E-04  1055   0.145E-02
   60 T=  3710. E= -.16580169E+04 F= -.17905039E+04 E0= -.17905039E+04  EK= 0.11607E+03 SP= 0.16E+02 SK= 0.20E-03
       N       E                     dE             d eps       ncg     rms          rms(c)
DAV:   1    -0.179099186974E+04   -0.48789E+00   -0.10175E-01  2848   0.316E+00    0.106E-01
RMM:   2    -0.179100233685E+04   -0.10467E-01   -0.10577E-01  1568   0.330E-01    0.841E-02
RMM:   3    -0.179100268155E+04   -0.34470E-03   -0.56155E-03  1796   0.556E-02    0.678E-02
RMM:   4    -0.179100263128E+04    0.50272E-04   -0.24645E-04  1044   0.137E-02
   61 T=  3728. E= -.16580227E+04 F= -.17910026E+04 E0= -.17910026E+04  EK= 0.11663E+03 SP= 0.16E+02 SK= 0.53E-02
       N       E                     dE             d eps       ncg     rms          rms(c)
DAV:   1    -0.179156818516E+04   -0.56550E+00   -0.11218E-01  2840   0.317E+00    0.108E-01
RMM:   2    -0.179157873877E+04   -0.10554E-01   -0.10665E-01  1568   0.332E-01    0.831E-02
RMM:   3    -0.179157908803E+04   -0.34926E-03   -0.55158E-03  1801   0.557E-02    0.672E-02
RMM:   4    -0.179157904521E+04    0.42823E-04   -0.25298E-04  1033   0.140E-02
   62 T=  3755. E= -.16580310E+04 F= -.17915790E+04 E0= -.17915790E+04  EK= 0.11747E+03 SP= 0.16E+02 SK= 0.23E-01
       N       E                     dE             d eps       ncg     rms          rms(c)
DAV:   1    -0.179219497400E+04   -0.61589E+00   -0.12813E-01  2784   0.318E+00    0.133E-01
RMM:   2    -0.179220611647E+04   -0.11142E-01   -0.11415E-01  1568   0.342E-01    0.850E-02
RMM:   3    -0.179220645317E+04   -0.33670E-03   -0.56622E-03  1806   0.569E-02    0.652E-02
RMM:   4    -0.179220640727E+04    0.45898E-04   -0.27138E-04  1045   0.147E-02
   63 T=  3789. E= -.16580409E+04 F= -.17922064E+04 E0= -.17922064E+04  EK= 0.11853E+03 SP= 0.16E+02 SK= 0.50E-01
       N       E                     dE             d eps       ncg     rms          rms(c)
DAV:   1    -0.179283902687E+04   -0.63257E+00   -0.13060E-01  2808   0.321E+00    0.111E-01
RMM:   2    -0.179285021235E+04   -0.11185E-01   -0.11319E-01  1568   0.341E-01    0.891E-02
RMM:   3    -0.179285054943E+04   -0.33708E-03   -0.57102E-03  1799   0.568E-02    0.718E-02
RMM:   4    -0.179285049885E+04    0.50579E-04   -0.25755E-04  1049   0.141E-02
   64 T=  3829. E= -.16580524E+04 F= -.17928505E+04 E0= -.17928505E+04  EK= 0.11977E+03 SP= 0.15E+02 SK= 0.80E-01
       N       E                     dE             d eps       ncg     rms          rms(c)
DAV:   1    -0.179345975917E+04   -0.60921E+00   -0.13473E-01  2832   0.322E+00    0.115E-01
RMM:   2    -0.179347119424E+04   -0.11435E-01   -0.11573E-01  1568   0.343E-01    0.896E-02
RMM:   3    -0.179347154860E+04   -0.35436E-03   -0.57940E-03  1809   0.577E-02    0.719E-02
RMM:   4    -0.179347149954E+04    0.49064E-04   -0.28467E-04  1064   0.150E-02
   65 T=  3872. E= -.16580647E+04 F= -.17934715E+04 E0= -.17934715E+04  EK= 0.12112E+03 SP= 0.14E+02 SK= 0.11E+00
       N       E                     dE             d eps       ncg     rms          rms(c)
DAV:   1    -0.179401453604E+04   -0.54299E+00   -0.14026E-01  2784   0.324E+00    0.136E-01
RMM:   2    -0.179402620106E+04   -0.11665E-01   -0.11946E-01  1568   0.348E-01    0.872E-02
RMM:   3    -0.179402654986E+04   -0.34880E-03   -0.58506E-03  1809   0.582E-02    0.659E-02
RMM:   4    -0.179402650437E+04    0.45488E-04   -0.29638E-04  1059   0.153E-02
   66 T=  3916. E= -.16580772E+04 F= -.17940265E+04 E0= -.17940265E+04  EK= 0.12251E+03 SP= 0.13E+02 SK= 0.13E+00
       N       E                     dE             d eps       ncg     rms          rms(c)
DAV:   1    -0.179445931321E+04   -0.43276E+00   -0.13697E-01  2800   0.327E+00    0.122E-01
RMM:   2    -0.179447114286E+04   -0.11830E-01   -0.12015E-01  1568   0.350E-01    0.917E-02
RMM:   3    -0.179447149962E+04   -0.35676E-03   -0.60101E-03  1801   0.588E-02    0.722E-02
RMM:   4    -0.179447144571E+04    0.53914E-04   -0.28794E-04  1057   0.150E-02
   67 T=  3960. E= -.16580897E+04 F= -.17944714E+04 E0= -.17944714E+04  EK= 0.12386E+03 SP= 0.12E+02 SK= 0.15E+00
       N       E                     dE             d eps       ncg     rms          rms(c)
DAV:   1    -0.179475030494E+04   -0.27881E+00   -0.12829E-01  2792   0.329E+00    0.109E-01
RMM:   2    -0.179476190294E+04   -0.11598E-01   -0.11727E-01  1568   0.345E-01    0.912E-02
RMM:   3    -0.179476228312E+04   -0.38017E-03   -0.59910E-03  1810   0.583E-02    0.737E-02
RMM:   4    -0.179476223034E+04    0.52775E-04   -0.28255E-04  1054   0.149E-02
   68 T=  3999. E= -.16581015E+04 F= -.17947622E+04 E0= -.17947622E+04  EK= 0.12510E+03 SP= 0.11E+02 SK= 0.15E+00
       N       E                     dE             d eps       ncg     rms          rms(c)
DAV:   1    -0.179484720402E+04   -0.84921E-01   -0.13660E-01  2792   0.330E+00    0.134E-01
RMM:   2    -0.179485909764E+04   -0.11894E-01   -0.12169E-01  1568   0.350E-01    0.887E-02
RMM:   3    -0.179485945993E+04   -0.36229E-03   -0.59739E-03  1804   0.590E-02    0.674E-02
RMM:   4    -0.179485941182E+04    0.48107E-04   -0.30934E-04  1078   0.157E-02
   69 T=  4033. E= -.16581113E+04 F= -.17948594E+04 E0= -.17948594E+04  EK= 0.12616E+03 SP= 0.10E+02 SK= 0.15E+00
       N       E                     dE             d eps       ncg     rms          rms(c)
DAV:   1    -0.179472101359E+04    0.13845E+00   -0.11630E-01  2776   0.332E+00    0.123E-01
RMM:   2    -0.179473293452E+04   -0.11921E-01   -0.12133E-01  1568   0.347E-01    0.907E-02
RMM:   3    -0.179473332648E+04   -0.39196E-03   -0.63267E-03  1810   0.594E-02    0.704E-02
RMM:   4    -0.179473327150E+04    0.54985E-04   -0.29374E-04  1065   0.151E-02
   70 T=  4059. E= -.16581192E+04 F= -.17947333E+04 E0= -.17947333E+04  EK= 0.12697E+03 SP= 0.95E+01 SK= 0.14E+00
       N       E                     dE             d eps       ncg     rms          rms(c)
DAV:   1    -0.179435186428E+04    0.38146E+00   -0.10033E-01  2848   0.332E+00    0.114E-01
RMM:   2    -0.179436302082E+04   -0.11157E-01   -0.11308E-01  1568   0.338E-01    0.910E-02
RMM:   3    -0.179436341058E+04   -0.38975E-03   -0.60434E-03  1799   0.580E-02    0.727E-02
RMM:   4    -0.179436335404E+04    0.56539E-04   -0.30293E-04  1077   0.155E-02
   71 T=  4076. E= -.16581247E+04 F= -.17943634E+04 E0= -.17943634E+04  EK= 0.12751E+03 SP= 0.86E+01 SK= 0.12E+00
       N       E                     dE             d eps       ncg     rms          rms(c)
DAV:   1    -0.179373211888E+04    0.63129E+00   -0.11338E-01  2848   0.332E+00    0.141E-01
RMM:   2    -0.179374342091E+04   -0.11302E-01   -0.11624E-01  1568   0.346E-01    0.882E-02
RMM:   3    -0.179374376906E+04   -0.34816E-03   -0.57917E-03  1801   0.581E-02    0.663E-02
RMM:   4    -0.179374371916E+04    0.49902E-04   -0.30854E-04  1087   0.156E-02
   72 T=  4084. E= -.16581270E+04 F= -.17937437E+04 E0= -.17937437E+04  EK= 0.12774E+03 SP= 0.78E+01 SK= 0.10E+00
       N       E                     dE             d eps       ncg     rms          rms(c)
DAV:   1    -0.179287261223E+04    0.87116E+00   -0.12151E-01  2824   0.332E+00    0.123E-01
RMM:   2    -0.179288448176E+04   -0.11870E-01   -0.12076E-01  1568   0.353E-01    0.976E-02
RMM:   3    -0.179288482092E+04   -0.33916E-03   -0.60438E-03  1799   0.589E-02    0.774E-02
RMM:   4    -0.179288475332E+04    0.67603E-04   -0.31098E-04  1086   0.155E-02
   73 T=  4081. E= -.16581267E+04 F= -.17928848E+04 E0= -.17928848E+04  EK= 0.12766E+03 SP= 0.70E+01 SK= 0.89E-01
       N       E                     dE             d eps       ncg     rms          rms(c)
DAV:   1    -0.179180146481E+04    0.10834E+01   -0.13892E-01  2800   0.330E+00    0.120E-01
RMM:   2    -0.179181422818E+04   -0.12763E-01   -0.12921E-01  1568   0.361E-01    0.102E-01
RMM:   3    -0.179181461064E+04   -0.38246E-03   -0.64843E-03  1806   0.609E-02    0.822E-02
RMM:   4    -0.179181454385E+04    0.66785E-04   -0.33209E-04  1096   0.161E-02
   74 T=  4070. E= -.16581244E+04 F= -.17918145E+04 E0= -.17918145E+04  EK= 0.12732E+03 SP= 0.63E+01 SK= 0.75E-01
       N       E                     dE             d eps       ncg     rms          rms(c)
DAV:   1    -0.179056306582E+04    0.12515E+01   -0.13339E-01  2768   0.328E+00    0.147E-01
RMM:   2    -0.179057591727E+04   -0.12851E-01   -0.13209E-01  1568   0.365E-01    0.955E-02
RMM:   3    -0.179057631948E+04   -0.40221E-03   -0.66051E-03  1811   0.615E-02    0.715E-02
RMM:   4    -0.179057626266E+04    0.56825E-04   -0.34083E-04  1102   0.165E-02
   75 T=  4052. E= -.16581193E+04 F= -.17905763E+04 E0= -.17905763E+04  EK= 0.12675E+03 SP= 0.56E+01 SK= 0.65E-01
       N       E                     dE             d eps       ncg     rms          rms(c)
DAV:   1    -0.178921413555E+04    0.13622E+01   -0.14036E-01  2800   0.327E+00    0.141E-01
RMM:   2    -0.178922673800E+04   -0.12602E-01   -0.12896E-01  1568   0.366E-01    0.955E-02
RMM:   3    -0.178922708779E+04   -0.34979E-03   -0.62603E-03  1806   0.608E-02    0.728E-02
RMM:   4    -0.178922702394E+04    0.63854E-04   -0.32910E-04  1094   0.160E-02
   76 T=  4029. E= -.16581128E+04 F= -.17892270E+04 E0= -.17892270E+04  EK= 0.12603E+03 SP= 0.50E+01 SK= 0.59E-01
       N       E                     dE             d eps       ncg     rms          rms(c)
DAV:   1    -0.178781929775E+04    0.14078E+01   -0.11388E-01  2768   0.325E+00    0.116E-01
RMM:   2    -0.178783128249E+04   -0.11985E-01   -0.12128E-01  1568   0.353E-01    0.983E-02
RMM:   3    -0.178783165842E+04   -0.37593E-03   -0.63534E-03  1803   0.593E-02    0.795E-02
RMM:   4    -0.178783158940E+04    0.69013E-04   -0.30492E-04  1077   0.154E-02
   77 T=  4003. E= -.16581061E+04 F= -.17878316E+04 E0= -.17878316E+04  EK= 0.12523E+03 SP= 0.44E+01 SK= 0.56E-01
       N       E                     dE             d eps       ncg     rms          rms(c)
DAV:   1    -0.178644421734E+04    0.13874E+01   -0.10810E-01  2784   0.322E+00    0.135E-01
RMM:   2    -0.178645564837E+04   -0.11431E-01   -0.11704E-01  1568   0.350E-01    0.928E-02
RMM:   3    -0.178645601315E+04   -0.36478E-03   -0.59891E-03  1799   0.582E-02    0.710E-02
RMM:   4    -0.178645595696E+04    0.56192E-04   -0.31232E-04  1076   0.159E-02
   78 T=  3978. E= -.16580999E+04 F= -.17864560E+04 E0= -.17864560E+04  EK= 0.12445E+03 SP= 0.38E+01 SK= 0.58E-01
       N       E                     dE             d eps       ncg     rms          rms(c)
DAV:   1    -0.178514901544E+04    0.13070E+01   -0.12335E-01  2816   0.320E+00    0.147E-01
RMM:   2    -0.178516101733E+04   -0.12002E-01   -0.12345E-01  1568   0.360E-01    0.915E-02
RMM:   3    -0.178516135024E+04   -0.33290E-03   -0.59396E-03  1802   0.590E-02    0.683E-02
RMM:   4    -0.178516129427E+04    0.55968E-04   -0.29902E-04  1077   0.153E-02
   79 T=  3956. E= -.16580943E+04 F= -.17851613E+04 E0= -.17851613E+04  EK= 0.12376E+03 SP= 0.32E+01 SK= 0.63E-01
       N       E                     dE             d eps       ncg     rms          rms(c)
DAV:   1    -0.178398811256E+04    0.11732E+01   -0.12974E-01  2832   0.319E+00    0.115E-01
RMM:   2    -0.178400028303E+04   -0.12170E-01   -0.12287E-01  1568   0.358E-01    0.987E-02
RMM:   3    -0.178400062826E+04   -0.34523E-03   -0.61399E-03  1800   0.593E-02    0.804E-02
RMM:   4    -0.178400056169E+04    0.66571E-04   -0.28989E-04  1071   0.150E-02
   80 T=  3940. E= -.16580910E+04 F= -.17840006E+04 E0= -.17840006E+04  EK= 0.12323E+03 SP= 0.26E+01 SK= 0.71E-01
       N       E                     dE             d eps       ncg     rms          rms(c)
DAV:   1    -0.178300144014E+04    0.99919E+00   -0.98176E-02  2816   0.318E+00    0.125E-01
RMM:   2    -0.178301294190E+04   -0.11502E-01   -0.11698E-01  1568   0.344E-01    0.918E-02
RMM:   3    -0.178301334101E+04   -0.39911E-03   -0.62341E-03  1801   0.582E-02    0.716E-02
RMM:   4    -0.178301329066E+04    0.50347E-04   -0.28908E-04  1058   0.151E-02
   81 T=  3930. E= -.16580899E+04 F= -.17830133E+04 E0= -.17830133E+04  EK= 0.12292E+03 SP= 0.19E+01 SK= 0.82E-01
       N       E                     dE             d eps       ncg     rms          rms(c)
DAV:   1    -0.178221222994E+04    0.80111E+00   -0.95058E-02  2824   0.317E+00    0.145E-01
RMM:   2    -0.178222348764E+04   -0.11258E-01   -0.11593E-01  1568   0.346E-01    0.878E-02
RMM:   3    -0.178222383446E+04   -0.34682E-03   -0.58080E-03  1795   0.573E-02    0.646E-02
RMM:   4    -0.178222378502E+04    0.49441E-04   -0.28467E-04  1066   0.150E-02
   82 T=  3928. E= -.16580910E+04 F= -.17822238E+04 E0= -.17822238E+04  EK= 0.12286E+03 SP= 0.12E+01 SK= 0.96E-01
       N       E                     dE             d eps       ncg     rms          rms(c)
DAV:   1    -0.178162910442E+04    0.59473E+00   -0.10708E-01  2792   0.318E+00    0.120E-01
RMM:   2    -0.178164037417E+04   -0.11270E-01   -0.11408E-01  1568   0.347E-01    0.949E-02
RMM:   3    -0.178164068780E+04   -0.31363E-03   -0.55775E-03  1789   0.568E-02    0.757E-02
RMM:   4    -0.178164062905E+04    0.58750E-04   -0.26566E-04  1062   0.144E-02
   83 T=  3934. E= -.16580948E+04 F= -.17816406E+04 E0= -.17816406E+04  EK= 0.12305E+03 SP= 0.38E+00 SK= 0.11E+00
       N       E                     dE             d eps       ncg     rms          rms(c)
DAV:   1    -0.178124502337E+04    0.39566E+00   -0.11170E-01  2792   0.318E+00    0.125E-01
RMM:   2    -0.178125642952E+04   -0.11406E-01   -0.11585E-01  1568   0.347E-01    0.954E-02
RMM:   3    -0.178125677918E+04   -0.34966E-03   -0.58457E-03  1794   0.575E-02    0.752E-02
RMM:   4    -0.178125672759E+04    0.51594E-04   -0.27756E-04  1063   0.148E-02
   84 T=  3948. E= -.16581008E+04 F= -.17812567E+04 E0= -.17812567E+04  EK= 0.12350E+03 SP= -.46E+00 SK= 0.12E+00
       N       E                     dE             d eps       ncg     rms          rms(c)
DAV:   1    -0.178104075708E+04    0.21602E+00   -0.11883E-01  2864   0.319E+00    0.144E-01
RMM:   2    -0.178105267167E+04   -0.11915E-01   -0.12221E-01  1568   0.353E-01    0.939E-02
RMM:   3    -0.178105302481E+04   -0.35314E-03   -0.60259E-03  1801   0.588E-02    0.707E-02
RMM:   4    -0.178105297348E+04    0.51337E-04   -0.29590E-04  1078   0.153E-02
   85 T=  3969. E= -.16581086E+04 F= -.17810530E+04 E0= -.17810530E+04  EK= 0.12417E+03 SP= -.14E+01 SK= 0.13E+00
       N       E                     dE             d eps       ncg     rms          rms(c)
DAV:   1    -0.178098762989E+04    0.65395E-01   -0.11263E-01  2816   0.321E+00    0.122E-01
RMM:   2    -0.178099949933E+04   -0.11869E-01   -0.12035E-01  1568   0.350E-01    0.971E-02
RMM:   3    -0.178099984860E+04   -0.34927E-03   -0.60067E-03  1802   0.582E-02    0.774E-02
RMM:   4    -0.178099978869E+04    0.59916E-04   -0.27494E-04  1056   0.147E-02
   86 T=  3996. E= -.16581179E+04 F= -.17809998E+04 E0= -.17809998E+04  EK= 0.12501E+03 SP= -.23E+01 SK= 0.13E+00
       N       E                     dE             d eps       ncg     rms          rms(c)
DAV:   1    -0.178104963341E+04   -0.49785E-01   -0.10824E-01  2808   0.323E+00    0.123E-01
RMM:   2    -0.178106140840E+04   -0.11775E-01   -0.11945E-01  1568   0.349E-01    0.986E-02
RMM:   3    -0.178106176727E+04   -0.35886E-03   -0.59814E-03  1801   0.580E-02    0.782E-02
RMM:   4    -0.178106170912E+04    0.58144E-04   -0.29402E-04  1069   0.154E-02
   87 T=  4027. E= -.16581281E+04 F= -.17810617E+04 E0= -.17810617E+04  EK= 0.12598E+03 SP= -.32E+01 SK= 0.13E+00
       N       E                     dE             d eps       ncg     rms          rms(c)
DAV:   1    -0.178118870818E+04   -0.12694E+00   -0.11386E-01  2816   0.324E+00    0.146E-01
RMM:   2    -0.178120039870E+04   -0.11691E-01   -0.12014E-01  1568   0.353E-01    0.959E-02
RMM:   3    -0.178120072443E+04   -0.32572E-03   -0.57711E-03  1797   0.577E-02    0.721E-02
RMM:   4    -0.178120067018E+04    0.54243E-04   -0.29966E-04  1077   0.155E-02
   88 T=  4060. E= -.16581389E+04 F= -.17812007E+04 E0= -.17812007E+04  EK= 0.12701E+03 SP= -.41E+01 SK= 0.12E+00
       N       E                     dE             d eps       ncg     rms          rms(c)
DAV:   1    -0.178136636472E+04   -0.16564E+00   -0.10870E-01  2880   0.327E+00    0.124E-01
RMM:   2    -0.178137792659E+04   -0.11562E-01   -0.11758E-01  1568   0.349E-01    0.100E-01
RMM:   3    -0.178137825631E+04   -0.32972E-03   -0.58429E-03  1786   0.576E-02    0.792E-02
RMM:   4    -0.178137819152E+04    0.64785E-04   -0.29089E-04  1074   0.152E-02
   89 T=  4093. E= -.16581492E+04 F= -.17813782E+04 E0= -.17813782E+04  EK= 0.12804E+03 SP= -.49E+01 SK= 0.11E+00
       N       E                     dE             d eps       ncg     rms          rms(c)
DAV:   1    -0.178154953027E+04   -0.17127E+00   -0.11200E-01  2840   0.329E+00    0.122E-01
RMM:   2    -0.178156119837E+04   -0.11668E-01   -0.11853E-01  1568   0.349E-01    0.102E-01
RMM:   3    -0.178156154800E+04   -0.34963E-03   -0.59296E-03  1798   0.578E-02    0.808E-02
RMM:   4    -0.178156148412E+04    0.63880E-04   -0.30439E-04  1079   0.156E-02
   90 T=  4124. E= -.16581589E+04 F= -.17815615E+04 E0= -.17815615E+04  EK= 0.12901E+03 SP= -.57E+01 SK= 0.85E-01
       N       E                     dE             d eps       ncg     rms          rms(c)
DAV:   1    -0.178171231719E+04   -0.15077E+00   -0.11750E-01  2856   0.330E+00    0.144E-01
RMM:   2    -0.178172442252E+04   -0.12105E-01   -0.12447E-01  1568   0.356E-01    0.986E-02
RMM:   3    -0.178172477678E+04   -0.35426E-03   -0.61248E-03  1805   0.590E-02    0.743E-02
RMM:   4    -0.178172471718E+04    0.59596E-04   -0.31661E-04  1086   0.158E-02
   91 T=  4151. E= -.16581674E+04 F= -.17817247E+04 E0= -.17817247E+04  EK= 0.12986E+03 SP= -.64E+01 SK= 0.62E-01
       N       E                     dE             d eps       ncg     rms          rms(c)
DAV:   1    -0.178183871746E+04   -0.11394E+00   -0.13736E-01  2824   0.333E+00    0.134E-01
RMM:   2    -0.178185136622E+04   -0.12649E-01   -0.12900E-01  1568   0.363E-01    0.105E-01
RMM:   3    -0.178185168949E+04   -0.32327E-03   -0.61590E-03  1802   0.597E-02    0.824E-02
RMM:   4    -0.178185161781E+04    0.71677E-04   -0.30839E-04  1087   0.155E-02
   92 T=  4174. E= -.16581742E+04 F= -.17818516E+04 E0= -.17818516E+04  EK= 0.13057E+03 SP= -.69E+01 SK= 0.40E-01
       N       E                     dE             d eps       ncg     rms          rms(c)
DAV:   1    -0.178192406222E+04   -0.72373E-01   -0.14476E-01  2792   0.334E+00    0.119E-01
RMM:   2    -0.178193680853E+04   -0.12746E-01   -0.12914E-01  1568   0.363E-01    0.110E-01
RMM:   3    -0.178193714877E+04   -0.34024E-03   -0.62518E-03  1804   0.599E-02    0.904E-02
RMM:   4    -0.178193706844E+04    0.80333E-04   -0.32263E-04  1092   0.161E-02
   93 T=  4191. E= -.16581799E+04 F= -.17819371E+04 E0= -.17819371E+04  EK= 0.13109E+03 SP= -.74E+01 SK= 0.20E-01
       N       E                     dE             d eps       ncg     rms          rms(c)
DAV:   1    -0.178196927912E+04   -0.32130E-01   -0.15048E-01  2848   0.335E+00    0.146E-01
RMM:   2    -0.178198250616E+04   -0.13227E-01   -0.13565E-01  1568   0.369E-01    0.103E-01
RMM:   3    -0.178198288901E+04   -0.38285E-03   -0.66795E-03  1808   0.618E-02    0.792E-02
RMM:   4    -0.178198282149E+04    0.67514E-04   -0.35723E-04  1109   0.169E-02
   94 T=  4202. E= -.16581839E+04 F= -.17819828E+04 E0= -.17819828E+04  EK= 0.13143E+03 SP= -.76E+01 SK= 0.66E-02
       N       E                     dE             d eps       ncg     rms          rms(c)
DAV:   1    -0.178198304873E+04   -0.15972E-03   -0.14115E-01  2848   0.336E+00    0.143E-01
RMM:   2    -0.178199648587E+04   -0.13437E-01   -0.13759E-01  1568   0.367E-01    0.970E-02
RMM:   3    -0.178199689122E+04   -0.40535E-03   -0.69720E-03  1804   0.622E-02    0.731E-02
RMM:   4    -0.178199682718E+04    0.64040E-04   -0.31577E-04  1089   0.156E-02
   95 T=  4206. E= -.16581868E+04 F= -.17819968E+04 E0= -.17819968E+04  EK= 0.13157E+03 SP= -.78E+01 SK= 0.33E-03
       N       E                     dE             d eps       ncg     rms          rms(c)
DAV:   1    -0.178197470123E+04    0.22190E-01   -0.13596E-01  2856   0.336E+00    0.119E-01
RMM:   2    -0.178198720778E+04   -0.12507E-01   -0.12650E-01  1568   0.357E-01    0.100E-01
RMM:   3    -0.178198756324E+04   -0.35546E-03   -0.63273E-03  1793   0.599E-02    0.805E-02
RMM:   4    -0.178198749243E+04    0.70811E-04   -0.30779E-04  1080   0.154E-02
   96 T=  4205. E= -.16581888E+04 F= -.17819875E+04 E0= -.17819875E+04  EK= 0.13152E+03 SP= -.77E+01 SK= 0.21E-02
       N       E                     dE             d eps       ncg     rms          rms(c)
DAV:   1    -0.178195070308E+04    0.36860E-01   -0.13940E-01  2872   0.335E+00    0.136E-01
RMM:   2    -0.178196284168E+04   -0.12139E-01   -0.12409E-01  1568   0.354E-01    0.962E-02
RMM:   3    -0.178196319227E+04   -0.35059E-03   -0.61246E-03  1790   0.592E-02    0.742E-02
RMM:   4    -0.178196313206E+04    0.60210E-04   -0.31568E-04  1089   0.158E-02
   97 T=  4197. E= -.16581900E+04 F= -.17819631E+04 E0= -.17819631E+04  EK= 0.13130E+03 SP= -.75E+01 SK= 0.12E-01
       N       E                     dE             d eps       ncg     rms          rms(c)
DAV:   1    -0.178191490374E+04    0.48289E-01   -0.13620E-01  2888   0.335E+00    0.145E-01
RMM:   2    -0.178192723100E+04   -0.12327E-01   -0.12665E-01  1568   0.356E-01    0.937E-02
RMM:   3    -0.178192757176E+04   -0.34076E-03   -0.61636E-03  1793   0.596E-02    0.709E-02
RMM:   4    -0.178192751165E+04    0.60117E-04   -0.30527E-04  1094   0.154E-02
   98 T=  4185. E= -.16581899E+04 F= -.17819275E+04 E0= -.17819275E+04  EK= 0.13090E+03 SP= -.72E+01 SK= 0.28E-01
       N       E                     dE             d eps       ncg     rms          rms(c)
DAV:   1    -0.178187035657E+04    0.57215E-01   -0.15418E-01  2848   0.335E+00    0.124E-01
RMM:   2    -0.178188347405E+04   -0.13117E-01   -0.13284E-01  1568   0.362E-01    0.101E-01
RMM:   3    -0.178188382242E+04   -0.34837E-03   -0.64591E-03  1797   0.609E-02    0.807E-02
RMM:   4    -0.178188375113E+04    0.71292E-04   -0.30886E-04  1091   0.153E-02
   99 T=  4167. E= -.16581894E+04 F= -.17818838E+04 E0= -.17818838E+04  EK= 0.13035E+03 SP= -.67E+01 SK= 0.49E-01
       N       E                     dE             d eps       ncg     rms          rms(c)
DAV:   1    -0.178182097705E+04    0.62845E-01   -0.18065E-01  2808   0.334E+00    0.136E-01
RMM:   2    -0.178183432817E+04   -0.13351E-01   -0.13583E-01  1568   0.368E-01    0.102E-01
RMM:   3    -0.178183466207E+04   -0.33391E-03   -0.64179E-03  1795   0.610E-02    0.794E-02
RMM:   4    -0.178183459797E+04    0.64105E-04   -0.32528E-04  1099   0.159E-02
  100 T=  4145. E= -.16581876E+04 F= -.17818346E+04 E0= -.17818346E+04  EK= 0.12966E+03 SP= -.61E+01 SK= 0.73E-01
       N       E                     dE             d eps       ncg     rms          rms(c)
DAV:   1    -0.178177244832E+04    0.62214E-01   -0.17868E-01  2808   0.333E+00    0.155E-01
RMM:   2    -0.178178567712E+04   -0.13229E-01   -0.13595E-01  1568   0.369E-01    0.100E-01
RMM:   3    -0.178178597796E+04   -0.30083E-03   -0.62321E-03  1784   0.606E-02    0.748E-02
RMM:   4    -0.178178591805E+04    0.59910E-04   -0.33150E-04  1108   0.160E-02
  101 T=  4120. E= -.16581849E+04 F= -.17817859E+04 E0= -.17817859E+04  EK= 0.12886E+03 SP= -.54E+01 SK= 0.97E-01
       N       E                     dE             d eps       ncg     rms          rms(c)
DAV:   1    -0.178173239769E+04    0.53580E-01   -0.14684E-01  2824   0.333E+00    0.123E-01
RMM:   2    -0.178174495226E+04   -0.12555E-01   -0.12730E-01  1568   0.358E-01    0.104E-01
RMM:   3    -0.178174525772E+04   -0.30546E-03   -0.59905E-03  1789   0.591E-02    0.828E-02
RMM:   4    -0.178174518573E+04    0.71984E-04   -0.31143E-04  1096   0.155E-02
  102 T=  4091. E= -.16581814E+04 F= -.17817452E+04 E0= -.17817452E+04  EK= 0.12798E+03 SP= -.45E+01 SK= 0.12E+00
       N       E                     dE             d eps       ncg     rms          rms(c)
DAV:   1    -0.178171129739E+04    0.33960E-01   -0.15442E-01  2808   0.331E+00    0.135E-01
RMM:   2    -0.178172398385E+04   -0.12686E-01   -0.12912E-01  1568   0.360E-01    0.101E-01
RMM:   3    -0.178172430193E+04   -0.31808E-03   -0.60138E-03  1798   0.595E-02    0.785E-02
RMM:   4    -0.178172423931E+04    0.62622E-04   -0.32218E-04  1098   0.160E-02
  103 T=  4062. E= -.16581771E+04 F= -.17817242E+04 E0= -.17817242E+04  EK= 0.12706E+03 SP= -.36E+01 SK= 0.14E+00
       N       E                     dE             d eps       ncg     rms          rms(c)
DAV:   1    -0.178172611511E+04   -0.18132E-02   -0.15208E-01  2784   0.330E+00    0.149E-01
RMM:   2    -0.178173894447E+04   -0.12829E-01   -0.13187E-01  1568   0.361E-01    0.988E-02
RMM:   3    -0.178173926674E+04   -0.32227E-03   -0.61643E-03  1796   0.598E-02    0.732E-02
RMM:   4    -0.178173920587E+04    0.60873E-04   -0.32610E-04  1100   0.160E-02
  104 T=  4032. E= -.16581731E+04 F= -.17817392E+04 E0= -.17817392E+04  EK= 0.12613E+03 SP= -.27E+01 SK= 0.15E+00
       N       E                     dE             d eps       ncg     rms          rms(c)
DAV:   1    -0.178179199698E+04   -0.52730E-01   -0.14053E-01  2824   0.329E+00    0.125E-01
RMM:   2    -0.178180419131E+04   -0.12194E-01   -0.12378E-01  1568   0.353E-01    0.102E-01
RMM:   3    -0.178180449542E+04   -0.30411E-03   -0.58362E-03  1791   0.584E-02    0.801E-02
RMM:   4    -0.178180442391E+04    0.71503E-04   -0.31519E-04  1092   0.158E-02
  105 T=  4003. E= -.16581690E+04 F= -.17818044E+04 E0= -.17818044E+04  EK= 0.12523E+03 SP= -.17E+01 SK= 0.15E+00
       N       E                     dE             d eps       ncg     rms          rms(c)
DAV:   1    -0.178192318260E+04   -0.11869E+00   -0.13886E-01  2800   0.327E+00    0.131E-01
RMM:   2    -0.178193537877E+04   -0.12196E-01   -0.12415E-01  1568   0.352E-01    0.988E-02
RMM:   3    -0.178193569817E+04   -0.31940E-03   -0.58698E-03  1793   0.583E-02    0.766E-02
RMM:   4    -0.178193563721E+04    0.60963E-04   -0.31150E-04  1078   0.158E-02
  106 T=  3977. E= -.16581658E+04 F= -.17819356E+04 E0= -.17819356E+04  EK= 0.12440E+03 SP= -.78E+00 SK= 0.15E+00
       N       E                     dE             d eps       ncg     rms          rms(c)
DAV:   1    -0.178213238495E+04   -0.19669E+00   -0.14717E-01  2808   0.326E+00    0.142E-01
RMM:   2    -0.178214465564E+04   -0.12271E-01   -0.12578E-01  1568   0.356E-01    0.973E-02
RMM:   3    -0.178214495163E+04   -0.29600E-03   -0.57401E-03  1793   0.585E-02    0.737E-02
RMM:   4    -0.178214489144E+04    0.60187E-04   -0.31240E-04  1083   0.158E-02
  107 T=  3954. E= -.16581630E+04 F= -.17821449E+04 E0= -.17821449E+04  EK= 0.12367E+03 SP= 0.17E+00 SK= 0.14E+00
       N       E                     dE             d eps       ncg     rms          rms(c)
DAV:   1    -0.178242779056E+04   -0.28284E+00   -0.13112E-01  2816   0.324E+00    0.118E-01
RMM:   2    -0.178243999793E+04   -0.12207E-01   -0.12370E-01  1568   0.351E-01    0.100E-01
RMM:   3    -0.178244032130E+04   -0.32337E-03   -0.59231E-03  1797   0.587E-02    0.806E-02
RMM:   4    -0.178244025329E+04    0.68007E-04   -0.30451E-04  1072   0.154E-02
  108 T=  3934. E= -.16581618E+04 F= -.17824403E+04 E0= -.17824403E+04  EK= 0.12307E+03 SP= 0.11E+01 SK= 0.13E+00
       N       E                     dE             d eps       ncg     rms          rms(c)
DAV:   1    -0.178281048285E+04   -0.37016E+00   -0.13537E-01  2792   0.322E+00    0.126E-01
RMM:   2    -0.178282232819E+04   -0.11845E-01   -0.12047E-01  1568   0.348E-01    0.964E-02
RMM:   3    -0.178282264917E+04   -0.32099E-03   -0.57944E-03  1793   0.581E-02    0.756E-02
RMM:   4    -0.178282259207E+04    0.57107E-04   -0.31062E-04  1086   0.156E-02
  109 T=  3920. E= -.16581618E+04 F= -.17828226E+04 E0= -.17828226E+04  EK= 0.12261E+03 SP= 0.19E+01 SK= 0.11E+00
       N       E                     dE             d eps       ncg     rms          rms(c)
DAV:   1    -0.178327410308E+04   -0.45145E+00   -0.14204E-01  2776   0.322E+00    0.140E-01
RMM:   2    -0.178328610979E+04   -0.12007E-01   -0.12306E-01  1568   0.351E-01    0.949E-02
RMM:   3    -0.178328641939E+04   -0.30960E-03   -0.57881E-03  1789   0.582E-02    0.719E-02
RMM:   4    -0.178328636318E+04    0.56211E-04   -0.30583E-04  1082   0.156E-02
  110 T=  3909. E= -.16581629E+04 F= -.17832864E+04 E0= -.17832864E+04  EK= 0.12229E+03 SP= 0.27E+01 SK= 0.95E-01
       N       E                     dE             d eps       ncg     rms          rms(c)
DAV:   1    -0.178380639922E+04   -0.51998E+00   -0.13576E-01  2776   0.321E+00    0.119E-01
RMM:   2    -0.178381841170E+04   -0.12012E-01   -0.12180E-01  1568   0.349E-01    0.959E-02
RMM:   3    -0.178381874624E+04   -0.33454E-03   -0.58739E-03  1797   0.583E-02    0.764E-02
RMM:   4    -0.178381868548E+04    0.60758E-04   -0.28486E-04  1058   0.150E-02
  111 T=  3903. E= -.16581651E+04 F= -.17838187E+04 E0= -.17838187E+04  EK= 0.12211E+03 SP= 0.35E+01 SK= 0.78E-01
       N       E                     dE             d eps       ncg     rms          rms(c)
DAV:   1    -0.178438896977E+04   -0.57022E+00   -0.12320E-01  2792   0.321E+00    0.118E-01
RMM:   2    -0.178440057174E+04   -0.11602E-01   -0.11789E-01  1568   0.343E-01    0.943E-02
RMM:   3    -0.178440092224E+04   -0.35050E-03   -0.58954E-03  1802   0.578E-02    0.745E-02
RMM:   4    -0.178440086496E+04    0.57274E-04   -0.29731E-04  1077   0.152E-02
  112 T=  3902. E= -.16581683E+04 F= -.17844009E+04 E0= -.17844009E+04  EK= 0.12205E+03 SP= 0.41E+01 SK= 0.62E-01
       N       E                     dE             d eps       ncg     rms          rms(c)
DAV:   1    -0.178499916296E+04   -0.59824E+00   -0.12257E-01  2816   0.320E+00    0.136E-01
RMM:   2    -0.178501073557E+04   -0.11573E-01   -0.11866E-01  1568   0.343E-01    0.916E-02
RMM:   3    -0.178501107106E+04   -0.33549E-03   -0.58726E-03  1792   0.577E-02    0.690E-02
RMM:   4    -0.178501101678E+04    0.54288E-04   -0.30433E-04  1077   0.154E-02
  113 T=  3903. E= -.16581721E+04 F= -.17850110E+04 E0= -.17850110E+04  EK= 0.12209E+03 SP= 0.47E+01 SK= 0.47E-01
       N       E                     dE             d eps       ncg     rms          rms(c)
DAV:   1    -0.178561456752E+04   -0.60350E+00   -0.13037E-01  2816   0.320E+00    0.124E-01
RMM:   2    -0.178562613770E+04   -0.11570E-01   -0.11774E-01  1568   0.345E-01    0.943E-02
RMM:   3    -0.178562644739E+04   -0.30969E-03   -0.56746E-03  1800   0.573E-02    0.739E-02
RMM:   4    -0.178562638657E+04    0.60824E-04   -0.28609E-04  1064   0.149E-02
  114 T=  3907. E= -.16581765E+04 F= -.17856264E+04 E0= -.17856264E+04  EK= 0.12221E+03 SP= 0.52E+01 SK= 0.35E-01
       N       E                     dE             d eps       ncg     rms          rms(c)
DAV:   1    -0.178621230491E+04   -0.58586E+00   -0.13675E-01  2832   0.320E+00    0.121E-01
RMM:   2    -0.178622399451E+04   -0.11690E-01   -0.11875E-01  1568   0.347E-01    0.975E-02
RMM:   3    -0.178622431149E+04   -0.31698E-03   -0.57069E-03  1796   0.575E-02    0.776E-02
RMM:   4    -0.178622424909E+04    0.62406E-04   -0.30812E-04  1068   0.156E-02
  115 T=  3912. E= -.16581810E+04 F= -.17862242E+04 E0= -.17862242E+04  EK= 0.12238E+03 SP= 0.56E+01 SK= 0.26E-01
       N       E                     dE             d eps       ncg     rms          rms(c)
DAV:   1    -0.178677320252E+04   -0.54889E+00   -0.12847E-01  2808   0.320E+00    0.133E-01
RMM:   2    -0.178678524998E+04   -0.12047E-01   -0.12324E-01  1568   0.349E-01    0.949E-02
RMM:   3    -0.178678558853E+04   -0.33855E-03   -0.60058E-03  1789   0.585E-02    0.725E-02
RMM:   4    -0.178678553204E+04    0.56490E-04   -0.32353E-04  1095   0.159E-02
  116 T=  3919. E= -.16581851E+04 F= -.17867855E+04 E0= -.17867855E+04  EK= 0.12258E+03 SP= 0.60E+01 SK= 0.18E-01
       N       E                     dE             d eps       ncg     rms          rms(c)
DAV:   1    -0.178728316999E+04   -0.49758E+00   -0.13559E-01  2792   0.321E+00    0.132E-01
RMM:   2    -0.178729538996E+04   -0.12220E-01   -0.12479E-01  1568   0.351E-01    0.953E-02
RMM:   3    -0.178729571704E+04   -0.32707E-03   -0.60493E-03  1794   0.590E-02    0.735E-02
RMM:   4    -0.178729565392E+04    0.63122E-04   -0.32164E-04  1089   0.159E-02
  117 T=  3925. E= -.16581891E+04 F= -.17872957E+04 E0= -.17872957E+04  EK= 0.12279E+03 SP= 0.63E+01 SK= 0.12E-01
       N       E                     dE             d eps       ncg     rms          rms(c)
DAV:   1    -0.178773053309E+04   -0.43482E+00   -0.12170E-01  2808   0.321E+00    0.117E-01
RMM:   2    -0.178774202109E+04   -0.11488E-01   -0.11660E-01  1568   0.341E-01    0.940E-02
RMM:   3    -0.178774234922E+04   -0.32812E-03   -0.57991E-03  1793   0.569E-02    0.747E-02
RMM:   4    -0.178774228675E+04    0.62462E-04   -0.29101E-04  1072   0.151E-02
  118 T=  3932. E= -.16581933E+04 F= -.17877423E+04 E0= -.17877423E+04  EK= 0.12299E+03 SP= 0.66E+01 SK= 0.77E-02
       N       E                     dE             d eps       ncg     rms          rms(c)
DAV:   1    -0.178810331418E+04   -0.36096E+00   -0.10107E-01  2808   0.322E+00    0.126E-01
RMM:   2    -0.178811464901E+04   -0.11335E-01   -0.11575E-01  1568   0.337E-01    0.885E-02
RMM:   3    -0.178811500802E+04   -0.35901E-03   -0.59234E-03  1794   0.570E-02    0.677E-02
RMM:   4    -0.178811495386E+04    0.54163E-04   -0.29024E-04  1060   0.152E-02
  119 T=  3938. E= -.16581974E+04 F= -.17881150E+04 E0= -.17881150E+04  EK= 0.12317E+03 SP= 0.67E+01 SK= 0.45E-02
       N       E                     dE             d eps       ncg     rms          rms(c)
DAV:   1    -0.178839217947E+04   -0.27717E+00   -0.11212E-01  2792   0.322E+00    0.130E-01
RMM:   2    -0.178840351894E+04   -0.11339E-01   -0.11596E-01  1568   0.341E-01    0.904E-02
RMM:   3    -0.178840383337E+04   -0.31442E-03   -0.57105E-03  1789   0.569E-02    0.692E-02
RMM:   4    -0.178840377518E+04    0.58186E-04   -0.28748E-04  1054   0.151E-02
  120 T=  3942. E= -.16582009E+04 F= -.17884038E+04 E0= -.17884038E+04  EK= 0.12332E+03 SP= 0.69E+01 SK= 0.24E-02
       N       E                     dE             d eps       ncg     rms          rms(c)
DAV:   1    -0.178858922550E+04   -0.18539E+00   -0.12328E-01  2840   0.323E+00    0.115E-01
RMM:   2    -0.178860039202E+04   -0.11167E-01   -0.11335E-01  1568   0.340E-01    0.949E-02
RMM:   3    -0.178860068557E+04   -0.29356E-03   -0.55162E-03  1789   0.560E-02    0.763E-02
RMM:   4    -0.178860062150E+04    0.64071E-04   -0.27285E-04  1054   0.148E-02
  121 T=  3945. E= -.16582042E+04 F= -.17886006E+04 E0= -.17886006E+04  EK= 0.12341E+03 SP= 0.70E+01 SK= 0.96E-03
       N       E                     dE             d eps       ncg     rms          rms(c)
DAV:   1    -0.178868850202E+04   -0.87816E-01   -0.13105E-01  2792   0.323E+00    0.124E-01
RMM:   2    -0.178869990994E+04   -0.11408E-01   -0.11637E-01  1568   0.342E-01    0.943E-02
RMM:   3    -0.178870022464E+04   -0.31470E-03   -0.56815E-03  1791   0.567E-02    0.740E-02
RMM:   4    -0.178870016468E+04    0.59958E-04   -0.29917E-04  1067   0.156E-02
  122 T=  3947. E= -.16582070E+04 F= -.17887002E+04 E0= -.17887002E+04  EK= 0.12345E+03 SP= 0.70E+01 SK= 0.20E-03
       N       E                     dE             d eps       ncg     rms          rms(c)
DAV:   1    -0.178868838494E+04    0.11840E-01   -0.11070E-01  2792   0.323E+00    0.131E-01
RMM:   2    -0.178869998506E+04   -0.11600E-01   -0.11883E-01  1568   0.341E-01    0.910E-02
RMM:   3    -0.178870035742E+04   -0.37236E-03   -0.61881E-03  1797   0.579E-02    0.695E-02
RMM:   4    -0.178870029777E+04    0.59649E-04   -0.30054E-04  1067   0.154E-02
  123 T=  3946. E= -.16582089E+04 F= -.17887003E+04 E0= -.17887003E+04  EK= 0.12344E+03 SP= 0.71E+01 SK= 0.58E-05
       N       E                     dE             d eps       ncg     rms          rms(c)
DAV:   1    -0.178859233701E+04    0.10802E+00   -0.11671E-01  2808   0.323E+00    0.125E-01
RMM:   2    -0.178860384432E+04   -0.11507E-01   -0.11719E-01  1568   0.343E-01    0.937E-02
RMM:   3    -0.178860417508E+04   -0.33076E-03   -0.58510E-03  1802   0.572E-02    0.736E-02
RMM:   4    -0.178860411087E+04    0.64210E-04   -0.28639E-04  1058   0.152E-02
  124 T=  3944. E= -.16582100E+04 F= -.17886041E+04 E0= -.17886041E+04  EK= 0.12337E+03 SP= 0.70E+01 SK= 0.38E-03
       N       E                     dE             d eps       ncg     rms          rms(c)
DAV:   1    -0.178841016750E+04    0.19401E+00   -0.11812E-01  2792   0.323E+00    0.123E-01
RMM:   2    -0.178842160776E+04   -0.11440E-01   -0.11659E-01  1568   0.343E-01    0.971E-02
RMM:   3    -0.178842194638E+04   -0.33862E-03   -0.58784E-03  1793   0.571E-02    0.769E-02
RMM:   4    -0.178842187973E+04    0.66654E-04   -0.30096E-04  1071   0.157E-02
  125 T=  3940. E= -.16582105E+04 F= -.17884219E+04 E0= -.17884219E+04  EK= 0.12325E+03 SP= 0.70E+01 SK= 0.14E-02
       N       E                     dE             d eps       ncg     rms          rms(c)
DAV:   1    -0.178815905590E+04    0.26289E+00   -0.90688E-02  2824   0.322E+00    0.126E-01
RMM:   2    -0.178817026432E+04   -0.11208E-01   -0.11465E-01  1568   0.335E-01    0.919E-02
RMM:   3    -0.178817066823E+04   -0.40392E-03   -0.62625E-03  1803   0.573E-02    0.710E-02
RMM:   4    -0.178817060964E+04    0.58592E-04   -0.29173E-04  1061   0.153E-02
  126 T=  3936. E= -.16582103E+04 F= -.17881706E+04 E0= -.17881706E+04  EK= 0.12312E+03 SP= 0.68E+01 SK= 0.32E-02
       N       E                     dE             d eps       ncg     rms          rms(c)
DAV:   1    -0.178786248205E+04    0.30819E+00   -0.10211E-01  2872   0.322E+00    0.133E-01
RMM:   2    -0.178787347481E+04   -0.10993E-01   -0.11268E-01  1568   0.338E-01    0.901E-02
RMM:   3    -0.178787382933E+04   -0.35452E-03   -0.58804E-03  1792   0.567E-02    0.686E-02
RMM:   4    -0.178787377086E+04    0.58475E-04   -0.28751E-04  1060   0.152E-02
  127 T=  3932. E= -.16582097E+04 F= -.17878738E+04 E0= -.17878738E+04  EK= 0.12298E+03 SP= 0.67E+01 SK= 0.60E-02
       N       E                     dE             d eps       ncg     rms          rms(c)
DAV:   1    -0.178754761494E+04    0.32621E+00   -0.11534E-01  2848   0.321E+00    0.120E-01
RMM:   2    -0.178755883281E+04   -0.11218E-01   -0.11403E-01  1568   0.342E-01    0.968E-02
RMM:   3    -0.178755915851E+04   -0.32570E-03   -0.57482E-03  1800   0.566E-02    0.778E-02
RMM:   4    -0.178755909145E+04    0.67060E-04   -0.27864E-04  1052   0.149E-02
  128 T=  3928. E= -.16582096E+04 F= -.17875591E+04 E0= -.17875591E+04  EK= 0.12288E+03 SP= 0.65E+01 SK= 0.98E-02
       N       E                     dE             d eps       ncg     rms          rms(c)
DAV:   1    -0.178724189876E+04    0.31726E+00   -0.10732E-01  2872   0.320E+00    0.121E-01
RMM:   2    -0.178725296197E+04   -0.11063E-01   -0.11275E-01  1568   0.339E-01    0.933E-02
RMM:   3    -0.178725332534E+04   -0.36337E-03   -0.58764E-03  1802   0.567E-02    0.744E-02
RMM:   4    -0.178725326552E+04    0.59816E-04   -0.27829E-04  1044   0.151E-02
  129 T=  3927. E= -.16582101E+04 F= -.17872533E+04 E0= -.17872533E+04  EK= 0.12285E+03 SP= 0.62E+01 SK= 0.15E-01
       N       E                     dE             d eps       ncg     rms          rms(c)
DAV:   1    -0.178696676980E+04    0.28656E+00   -0.11012E-01  2816   0.320E+00    0.134E-01
RMM:   2    -0.178697780629E+04   -0.11036E-01   -0.11327E-01  1568   0.340E-01    0.889E-02
RMM:   3    -0.178697815553E+04   -0.34924E-03   -0.58086E-03  1797   0.568E-02    0.681E-02
RMM:   4    -0.178697810104E+04    0.54489E-04   -0.27088E-04  1043   0.148E-02
  130 T=  3929. E= -.16582116E+04 F= -.17869781E+04 E0= -.17869781E+04  EK= 0.12289E+03 SP= 0.59E+01 SK= 0.21E-01
       N       E                     dE             d eps       ncg     rms          rms(c)
DAV:   1    -0.178673554192E+04    0.24261E+00   -0.12520E-01  2792   0.320E+00    0.120E-01
RMM:   2    -0.178674700499E+04   -0.11463E-01   -0.11639E-01  1568   0.345E-01    0.932E-02
RMM:   3    -0.178674732935E+04   -0.32436E-03   -0.57394E-03  1805   0.570E-02    0.742E-02
RMM:   4    -0.178674726922E+04    0.60131E-04   -0.26414E-04  1046   0.144E-02
  131 T=  3933. E= -.16582144E+04 F= -.17867473E+04 E0= -.17867473E+04  EK= 0.12304E+03 SP= 0.55E+01 SK= 0.27E-01
       N       E                     dE             d eps       ncg     rms          rms(c)
DAV:   1    -0.178655200596E+04    0.19532E+00   -0.10759E-01  2816   0.320E+00    0.115E-01
RMM:   2    -0.178656287065E+04   -0.10865E-01   -0.11029E-01  1568   0.337E-01    0.926E-02
RMM:   3    -0.178656319862E+04   -0.32797E-03   -0.55160E-03  1793   0.553E-02    0.738E-02
RMM:   4    -0.178656314353E+04    0.55087E-04   -0.26170E-04  1046   0.145E-02
  132 T=  3941. E= -.16582184E+04 F= -.17865631E+04 E0= -.17865631E+04  EK= 0.12328E+03 SP= 0.50E+01 SK= 0.34E-01
       N       E                     dE             d eps       ncg     rms          rms(c)
DAV:   1    -0.178640606215E+04    0.15714E+00   -0.11203E-01  2832   0.320E+00    0.140E-01
RMM:   2    -0.178641704372E+04   -0.10982E-01   -0.11305E-01  1568   0.342E-01    0.868E-02
RMM:   3    -0.178641736658E+04   -0.32286E-03   -0.55305E-03  1786   0.556E-02    0.643E-02
RMM:   4    -0.178641731850E+04    0.48085E-04   -0.26849E-04  1047   0.147E-02
  133 T=  3951. E= -.16582231E+04 F= -.17864173E+04 E0= -.17864173E+04  EK= 0.12361E+03 SP= 0.45E+01 SK= 0.41E-01
       N       E                     dE             d eps       ncg     rms          rms(c)
DAV:   1    -0.178628299436E+04    0.13437E+00   -0.11186E-01  2832   0.321E+00    0.118E-01
RMM:   2    -0.178629441285E+04   -0.11418E-01   -0.11604E-01  1568   0.345E-01    0.980E-02
RMM:   3    -0.178629471722E+04   -0.30437E-03   -0.56008E-03  1798   0.560E-02    0.773E-02
RMM:   4    -0.178629464870E+04    0.68528E-04   -0.27114E-04  1051   0.148E-02
  134 T=  3964. E= -.16582287E+04 F= -.17862946E+04 E0= -.17862946E+04  EK= 0.12399E+03 SP= 0.40E+01 SK= 0.46E-01
       N       E                     dE             d eps       ncg     rms          rms(c)
DAV:   1    -0.178616403874E+04    0.13068E+00   -0.12003E-01  2784   0.321E+00    0.120E-01
RMM:   2    -0.178617551903E+04   -0.11480E-01   -0.11652E-01  1568   0.347E-01    0.991E-02
RMM:   3    -0.178617583239E+04   -0.31336E-03   -0.55910E-03  1800   0.564E-02    0.779E-02
RMM:   4    -0.178617577168E+04    0.60719E-04   -0.28916E-04  1066   0.153E-02
  135 T=  3977. E= -.16582347E+04 F= -.17861758E+04 E0= -.17861758E+04  EK= 0.12441E+03 SP= 0.35E+01 SK= 0.50E-01
       N       E                     dE             d eps       ncg     rms          rms(c)
DAV:   1    -0.178602902941E+04    0.14680E+00   -0.14384E-01  2792   0.322E+00    0.152E-01
RMM:   2    -0.178604124825E+04   -0.12219E-01   -0.12606E-01  1568   0.363E-01    0.102E-01
RMM:   3    -0.178604152087E+04   -0.27262E-03   -0.56738E-03  1795   0.576E-02    0.750E-02
RMM:   4    -0.178604145730E+04    0.63576E-04   -0.32824E-04  1098   0.164E-02
  136 T=  3991. E= -.16582401E+04 F= -.17860415E+04 E0= -.17860415E+04  EK= 0.12483E+03 SP= 0.29E+01 SK= 0.52E-01
       N       E                     dE             d eps       ncg     rms          rms(c)
DAV:   1    -0.178586343299E+04    0.17809E+00   -0.13972E-01  2800   0.323E+00    0.133E-01
RMM:   2    -0.178587616463E+04   -0.12732E-01   -0.12979E-01  1568   0.366E-01    0.110E-01
RMM:   3    -0.178587643778E+04   -0.27315E-03   -0.58986E-03  1793   0.584E-02    0.855E-02
RMM:   4    -0.178587635604E+04    0.81744E-04   -0.33029E-04  1097   0.164E-02
  137 T=  4004. E= -.16582450E+04 F= -.17858764E+04 E0= -.17858764E+04  EK= 0.12524E+03 SP= 0.23E+01 SK= 0.53E-01
       N       E                     dE             d eps       ncg     rms          rms(c)
DAV:   1    -0.178565977357E+04    0.21666E+00   -0.95364E-02  2832   0.324E+00    0.115E-01
RMM:   2    -0.178567093113E+04   -0.11158E-01   -0.11331E-01  1568   0.344E-01    0.105E-01
RMM:   3    -0.178567126753E+04   -0.33640E-03   -0.57222E-03  1806   0.557E-02    0.831E-02
RMM:   4    -0.178567119225E+04    0.75277E-04   -0.31285E-04  1065   0.162E-02
  138 T=  4015. E= -.16582496E+04 F= -.17856712E+04 E0= -.17856712E+04  EK= 0.12560E+03 SP= 0.18E+01 SK= 0.51E-01
       N       E                     dE             d eps       ncg     rms          rms(c)
DAV:   1    -0.178541296896E+04    0.25830E+00   -0.10235E-01  2840   0.324E+00    0.159E-01
RMM:   2    -0.178542390750E+04   -0.10939E-01   -0.11397E-01  1568   0.347E-01    0.893E-02
RMM:   3    -0.178542421911E+04   -0.31160E-03   -0.54439E-03  1800   0.553E-02    0.618E-02
RMM:   4    -0.178542416899E+04    0.50115E-04   -0.29095E-04  1056   0.156E-02
  139 T=  4025. E= -.16582529E+04 F= -.17854242E+04 E0= -.17854242E+04  EK= 0.12591E+03 SP= 0.12E+01 SK= 0.49E-01
[...]
RMM:   4    -0.179023519974E+04    0.44682E-04   -0.29054E-04  1079   0.148E-02
  965 T=  4007. E= -.16598451E+04 F= -.17902352E+04 E0= -.17902352E+04  EK= 0.12534E+03 SP= 0.49E+01 SK= 0.12E+00
       N       E                     dE             d eps       ncg     rms          rms(c)
DAV:   1    -0.179020735150E+04    0.27893E-01   -0.12401E-01  2864   0.331E+00    0.153E-01
RMM:   2    -0.179021859229E+04   -0.11241E-01   -0.11668E-01  1568   0.343E-01    0.854E-02
RMM:   3    -0.179021893923E+04   -0.34693E-03   -0.58452E-03  1787   0.578E-02    0.610E-02
RMM:   4    -0.179021889664E+04    0.42588E-04   -0.30449E-04  1084   0.153E-02
  966 T=  4034. E= -.16598533E+04 F= -.17902189E+04 E0= -.17902189E+04  EK= 0.12617E+03 SP= 0.41E+01 SK= 0.11E+00
       N       E                     dE             d eps       ncg     rms          rms(c)
DAV:   1    -0.179017181282E+04    0.47126E-01   -0.13402E-01  2824   0.333E+00    0.120E-01
RMM:   2    -0.179018371876E+04   -0.11906E-01   -0.12075E-01  1568   0.348E-01    0.947E-02
RMM:   3    -0.179018404791E+04   -0.32915E-03   -0.58737E-03  1789   0.583E-02    0.755E-02
RMM:   4    -0.179018398724E+04    0.60662E-04   -0.29810E-04  1083   0.150E-02
  967 T=  4059. E= -.16598616E+04 F= -.17901840E+04 E0= -.17901840E+04  EK= 0.12697E+03 SP= 0.32E+01 SK= 0.11E+00
       N       E                     dE             d eps       ncg     rms          rms(c)
DAV:   1    -0.179008742102E+04    0.96627E-01   -0.13200E-01  2792   0.334E+00    0.125E-01
RMM:   2    -0.179009939488E+04   -0.11974E-01   -0.12157E-01  1568   0.349E-01    0.926E-02
RMM:   3    -0.179009974666E+04   -0.35178E-03   -0.59225E-03  1790   0.584E-02    0.728E-02
RMM:   4    -0.179009969870E+04    0.47960E-04   -0.30923E-04  1082   0.154E-02
  968 T=  4081. E= -.16598695E+04 F= -.17900997E+04 E0= -.17900997E+04  EK= 0.12767E+03 SP= 0.25E+01 SK= 0.92E-01
       N       E                     dE             d eps       ncg     rms          rms(c)
DAV:   1    -0.178992072885E+04    0.17902E+00   -0.10992E-01  2832   0.335E+00    0.145E-01
RMM:   2    -0.178993309073E+04   -0.12362E-01   -0.12717E-01  1568   0.352E-01    0.903E-02
RMM:   3    -0.178993348451E+04   -0.39378E-03   -0.64866E-03  1792   0.601E-02    0.666E-02
RMM:   4    -0.178993343453E+04    0.49981E-04   -0.32263E-04  1093   0.157E-02
  969 T=  4100. E= -.16598766E+04 F= -.17899334E+04 E0= -.17899334E+04  EK= 0.12824E+03 SP= 0.17E+01 SK= 0.75E-01
       N       E                     dE             d eps       ncg     rms          rms(c)
DAV:   1    -0.178964041360E+04    0.29307E+00   -0.11798E-01  2872   0.337E+00    0.123E-01
RMM:   2    -0.178965258071E+04   -0.12167E-01   -0.12343E-01  1568   0.353E-01    0.964E-02
RMM:   3    -0.178965292015E+04   -0.33945E-03   -0.60245E-03  1795   0.591E-02    0.765E-02
RMM:   4    -0.178965285779E+04    0.62362E-04   -0.31890E-04  1093   0.156E-02
  970 T=  4111. E= -.16598825E+04 F= -.17896529E+04 E0= -.17896529E+04  EK= 0.12861E+03 SP= 0.11E+01 SK= 0.59E-01
       N       E                     dE             d eps       ncg     rms          rms(c)
DAV:   1    -0.178921685927E+04    0.43606E+00   -0.12178E-01  2808   0.338E+00    0.130E-01
RMM:   2    -0.178922881201E+04   -0.11953E-01   -0.12174E-01  1568   0.353E-01    0.933E-02
RMM:   3    -0.178922915347E+04   -0.34146E-03   -0.59396E-03  1793   0.586E-02    0.726E-02
RMM:   4    -0.178922910020E+04    0.53275E-04   -0.31502E-04  1095   0.156E-02
  971 T=  4116. E= -.16598869E+04 F= -.17892291E+04 E0= -.17892291E+04  EK= 0.12876E+03 SP= 0.54E+00 SK= 0.43E-01
       N       E                     dE             d eps       ncg     rms          rms(c)
DAV:   1    -0.178862393058E+04    0.60522E+00   -0.12350E-01  2832   0.339E+00    0.140E-01
RMM:   2    -0.178863641980E+04   -0.12489E-01   -0.12799E-01  1568   0.360E-01    0.956E-02
RMM:   3    -0.178863677190E+04   -0.35210E-03   -0.62653E-03  1802   0.599E-02    0.724E-02
RMM:   4    -0.178863671052E+04    0.61375E-04   -0.32888E-04  1093   0.159E-02
  972 T=  4113. E= -.16598896E+04 F= -.17886367E+04 E0= -.17886367E+04  EK= 0.12864E+03 SP= 0.73E-01 SK= 0.29E-01
       N       E                     dE             d eps       ncg     rms          rms(c)
DAV:   1    -0.178784253312E+04    0.79424E+00   -0.12921E-01  2800   0.339E+00    0.128E-01
RMM:   2    -0.178785560395E+04   -0.13071E-01   -0.13282E-01  1568   0.365E-01    0.995E-02
RMM:   3    -0.178785597428E+04   -0.37033E-03   -0.65221E-03  1805   0.611E-02    0.780E-02
RMM:   4    -0.178785590627E+04    0.68014E-04   -0.33816E-04  1097   0.161E-02
  973 T=  4100. E= -.16598899E+04 F= -.17878559E+04 E0= -.17878559E+04  EK= 0.12826E+03 SP= -.31E+00 SK= 0.19E-01
       N       E                     dE             d eps       ncg     rms          rms(c)
DAV:   1    -0.178686458344E+04    0.99139E+00   -0.12213E-01  2832   0.338E+00    0.137E-01
RMM:   2    -0.178687758427E+04   -0.13001E-01   -0.13268E-01  1568   0.366E-01    0.997E-02
RMM:   3    -0.178687795957E+04   -0.37530E-03   -0.65752E-03  1800   0.614E-02    0.769E-02
RMM:   4    -0.178687789501E+04    0.64558E-04   -0.34671E-04  1110   0.163E-02
  974 T=  4079. E= -.16598880E+04 F= -.17868779E+04 E0= -.17868779E+04  EK= 0.12759E+03 SP= -.61E+00 SK= 0.12E-01
       N       E                     dE             d eps       ncg     rms          rms(c)
DAV:   1    -0.178569285258E+04    0.11851E+01   -0.13730E-01  2832   0.338E+00    0.143E-01
RMM:   2    -0.178570605545E+04   -0.13203E-01   -0.13501E-01  1568   0.372E-01    0.106E-01
RMM:   3    -0.178570637513E+04   -0.31967E-03   -0.63665E-03  1795   0.612E-02    0.818E-02
RMM:   4    -0.178570630144E+04    0.73682E-04   -0.35909E-04  1119   0.166E-02
  975 T=  4049. E= -.16598836E+04 F= -.17857063E+04 E0= -.17857063E+04  EK= 0.12667E+03 SP= -.86E+00 SK= 0.82E-02
       N       E                     dE             d eps       ncg     rms          rms(c)
DAV:   1    -0.178434796126E+04    0.13584E+01   -0.11716E-01  2872   0.336E+00    0.121E-01
RMM:   2    -0.178436064893E+04   -0.12688E-01   -0.12870E-01  1568   0.363E-01    0.107E-01
RMM:   3    -0.178436100267E+04   -0.35374E-03   -0.63986E-03  1795   0.599E-02    0.864E-02
RMM:   4    -0.178436092345E+04    0.79217E-04   -0.33672E-04  1096   0.162E-02
  976 T=  4013. E= -.16598773E+04 F= -.17843609E+04 E0= -.17843609E+04  EK= 0.12554E+03 SP= -.11E+01 SK= 0.65E-02
       N       E                     dE             d eps       ncg     rms          rms(c)
DAV:   1    -0.178286309478E+04    0.14979E+01   -0.11570E-01  2824   0.334E+00    0.141E-01
RMM:   2    -0.178287556971E+04   -0.12475E-01   -0.12778E-01  1568   0.363E-01    0.103E-01
RMM:   3    -0.178287591212E+04   -0.34241E-03   -0.62335E-03  1799   0.595E-02    0.778E-02
RMM:   4    -0.178287584482E+04    0.67298E-04   -0.35192E-04  1104   0.167E-02
  977 T=  3972. E= -.16598690E+04 F= -.17828758E+04 E0= -.17828758E+04  EK= 0.12426E+03 SP= -.13E+01 SK= 0.69E-02
       N       E                     dE             d eps       ncg     rms          rms(c)
DAV:   1    -0.178128869104E+04    0.15872E+01   -0.10313E-01  2840   0.332E+00    0.142E-01
RMM:   2    -0.178130019028E+04   -0.11499E-01   -0.11828E-01  1568   0.357E-01    0.102E-01
RMM:   3    -0.178130046515E+04   -0.27488E-03   -0.55784E-03  1791   0.566E-02    0.761E-02
RMM:   4    -0.178130039348E+04    0.71673E-04   -0.31822E-04  1082   0.160E-02
  978 T=  3929. E= -.16598593E+04 F= -.17813004E+04 E0= -.17813004E+04  EK= 0.12290E+03 SP= -.15E+01 SK= 0.96E-02
       N       E                     dE             d eps       ncg     rms          rms(c)
DAV:   1    -0.177968558332E+04    0.16149E+01   -0.10009E-01  2864   0.330E+00    0.121E-01
RMM:   2    -0.177969661367E+04   -0.11030E-01   -0.11212E-01  1568   0.350E-01    0.105E-01
RMM:   3    -0.177969689293E+04   -0.27926E-03   -0.53971E-03  1797   0.555E-02    0.827E-02
RMM:   4    -0.177969681558E+04    0.77350E-04   -0.30629E-04  1073   0.158E-02
  979 T=  3887. E= -.16598494E+04 F= -.17796968E+04 E0= -.17796968E+04  EK= 0.12158E+03 SP= -.17E+01 SK= 0.16E-01
       N       E                     dE             d eps       ncg     rms          rms(c)
DAV:   1    -0.177812606766E+04    0.15708E+01   -0.91702E-02  2816   0.327E+00    0.136E-01
RMM:   2    -0.177813691126E+04   -0.10844E-01   -0.11136E-01  1568   0.348E-01    0.101E-01
RMM:   3    -0.177813719451E+04   -0.28325E-03   -0.53263E-03  1778   0.551E-02    0.758E-02
RMM:   4    -0.177813713247E+04    0.62039E-04   -0.32520E-04  1083   0.163E-02
  980 T=  3848. E= -.16598400E+04 F= -.17781371E+04 E0= -.17781371E+04  EK= 0.12037E+03 SP= -.21E+01 SK= 0.28E-01
       N       E                     dE             d eps       ncg     rms          rms(c)
DAV:   1    -0.177668685971E+04    0.14503E+01   -0.80095E-02  2888   0.324E+00    0.140E-01
RMM:   2    -0.177669769360E+04   -0.10834E-01   -0.11162E-01  1568   0.348E-01    0.976E-02
RMM:   3    -0.177669797312E+04   -0.27952E-03   -0.54317E-03  1766   0.550E-02    0.725E-02
RMM:   4    -0.177669790871E+04    0.64411E-04   -0.29845E-04  1063   0.155E-02
  981 T=  3817. E= -.16598318E+04 F= -.17766979E+04 E0= -.17766979E+04  EK= 0.11940E+03 SP= -.26E+01 SK= 0.48E-01
       N       E                     dE             d eps       ncg     rms          rms(c)
DAV:   1    -0.177544452437E+04    0.12534E+01   -0.77741E-02  2880   0.322E+00    0.109E-01
RMM:   2    -0.177545502326E+04   -0.10499E-01   -0.10623E-01  1568   0.342E-01    0.105E-01
RMM:   3    -0.177545528114E+04   -0.25789E-03   -0.51297E-03  1774   0.536E-02    0.854E-02
RMM:   4    -0.177545520067E+04    0.80478E-04   -0.29636E-04  1063   0.155E-02
  982 T=  3796. E= -.16598263E+04 F= -.17754552E+04 E0= -.17754552E+04  EK= 0.11875E+03 SP= -.32E+01 SK= 0.78E-01
       N       E                     dE             d eps       ncg     rms          rms(c)
DAV:   1    -0.177446673251E+04    0.98855E+00   -0.78487E-02  2808   0.319E+00    0.127E-01
RMM:   2    -0.177447705482E+04   -0.10322E-01   -0.10558E-01  1568   0.339E-01    0.969E-02
RMM:   3    -0.177447733951E+04   -0.28469E-03   -0.51343E-03  1777   0.537E-02    0.741E-02
RMM:   4    -0.177447728269E+04    0.56823E-04   -0.30737E-04  1068   0.159E-02
  983 T=  3788. E= -.16598245E+04 F= -.17744773E+04 E0= -.17744773E+04  EK= 0.11851E+03 SP= -.40E+01 SK= 0.12E+00
       N       E                     dE             d eps       ncg     rms          rms(c)
DAV:   1    -0.177380374748E+04    0.67359E+00   -0.92557E-02  2792   0.319E+00    0.148E-01
RMM:   2    -0.177381478836E+04   -0.11041E-01   -0.11406E-01  1568   0.350E-01    0.911E-02
RMM:   3    -0.177381506644E+04   -0.27808E-03   -0.53502E-03  1778   0.555E-02    0.662E-02
RMM:   4    -0.177381501325E+04    0.53193E-04   -0.29407E-04  1073   0.152E-02
  984 T=  3796. E= -.16598262E+04 F= -.17738150E+04 E0= -.17738150E+04  EK= 0.11873E+03 SP= -.49E+01 SK= 0.17E+00
       N       E                     dE             d eps       ncg     rms          rms(c)
DAV:   1    -0.177348447375E+04    0.33059E+00   -0.11806E-01  2840   0.319E+00    0.112E-01
RMM:   2    -0.177349613289E+04   -0.11659E-01   -0.11764E-01  1568   0.355E-01    0.103E-01
RMM:   3    -0.177349639758E+04   -0.26469E-03   -0.54480E-03  1781   0.563E-02    0.836E-02
RMM:   4    -0.177349632579E+04    0.71790E-04   -0.29060E-04  1073   0.152E-02
  985 T=  3819. E= -.16598330E+04 F= -.17734963E+04 E0= -.17734963E+04  EK= 0.11945E+03 SP= -.60E+01 SK= 0.22E+00
       N       E                     dE             d eps       ncg     rms          rms(c)
DAV:   1    -0.177350797493E+04   -0.11577E-01   -0.13855E-01  2768   0.318E+00    0.125E-01
RMM:   2    -0.177352010337E+04   -0.12128E-01   -0.12310E-01  1568   0.360E-01    0.103E-01
RMM:   3    -0.177352037943E+04   -0.27605E-03   -0.55108E-03  1783   0.572E-02    0.820E-02
RMM:   4    -0.177352032149E+04    0.57940E-04   -0.34162E-04  1103   0.165E-02
  986 T=  3857. E= -.16598441E+04 F= -.17735203E+04 E0= -.17735203E+04  EK= 0.12065E+03 SP= -.72E+01 SK= 0.27E+00
       N       E                     dE             d eps       ncg     rms          rms(c)
DAV:   1    -0.177384680276E+04   -0.32642E+00   -0.10874E-01  2792   0.319E+00    0.146E-01
RMM:   2    -0.177385879863E+04   -0.11996E-01   -0.12352E-01  1568   0.357E-01    0.947E-02
RMM:   3    -0.177385910880E+04   -0.31017E-03   -0.57574E-03  1780   0.572E-02    0.704E-02
RMM:   4    -0.177385905410E+04    0.54707E-04   -0.33115E-04  1093   0.162E-02
  987 T=  3909. E= -.16598588E+04 F= -.17738591E+04 E0= -.17738591E+04  EK= 0.12228E+03 SP= -.86E+01 SK= 0.31E+00
       N       E                     dE             d eps       ncg     rms          rms(c)
DAV:   1    -0.177444972155E+04   -0.59061E+00   -0.96957E-02  2856   0.321E+00    0.121E-01
RMM:   2    -0.177446123675E+04   -0.11515E-01   -0.11665E-01  1568   0.350E-01    0.931E-02
RMM:   3    -0.177446154581E+04   -0.30906E-03   -0.55966E-03  1785   0.561E-02    0.724E-02
RMM:   4    -0.177446148579E+04    0.60015E-04   -0.29891E-04  1079   0.152E-02
  988 T=  3972. E= -.16598766E+04 F= -.17744615E+04 E0= -.17744615E+04  EK= 0.12426E+03 SP= -.10E+02 SK= 0.33E+00
       N       E                     dE             d eps       ncg     rms          rms(c)
DAV:   1    -0.177525113878E+04   -0.78959E+00   -0.10954E-01  2832   0.323E+00    0.127E-01
RMM:   2    -0.177526249293E+04   -0.11354E-01   -0.11540E-01  1568   0.354E-01    0.953E-02
RMM:   3    -0.177526276798E+04   -0.27505E-03   -0.52627E-03  1781   0.554E-02    0.733E-02
RMM:   4    -0.177526271016E+04    0.57812E-04   -0.31484E-04  1079   0.159E-02
  989 T=  4043. E= -.16598958E+04 F= -.17752627E+04 E0= -.17752627E+04  EK= 0.12648E+03 SP= -.11E+02 SK= 0.33E+00
       N       E                     dE             d eps       ncg     rms          rms(c)
DAV:   1    -0.177618102863E+04   -0.91826E+00   -0.12658E-01  2832   0.326E+00    0.145E-01
RMM:   2    -0.177619345152E+04   -0.12423E-01   -0.12736E-01  1568   0.370E-01    0.102E-01
RMM:   3    -0.177619371765E+04   -0.26614E-03   -0.55097E-03  1790   0.576E-02    0.763E-02
RMM:   4    -0.177619365553E+04    0.62126E-04   -0.34448E-04  1109   0.167E-02
  990 T=  4118. E= -.16599152E+04 F= -.17761937E+04 E0= -.17761937E+04  EK= 0.12883E+03 SP= -.13E+02 SK= 0.30E+00
       N       E                     dE             d eps       ncg     rms          rms(c)
DAV:   1    -0.177717590761E+04   -0.98219E+00   -0.13142E-01  2800   0.329E+00    0.133E-01
RMM:   2    -0.177718899623E+04   -0.13089E-01   -0.13320E-01  1568   0.377E-01    0.109E-01
RMM:   3    -0.177718928884E+04   -0.29262E-03   -0.59616E-03  1798   0.593E-02    0.844E-02
RMM:   4    -0.177718921567E+04    0.73172E-04   -0.36149E-04  1111   0.171E-02
  991 T=  4193. E= -.16599344E+04 F= -.17771892E+04 E0= -.17771892E+04  EK= 0.13117E+03 SP= -.14E+02 SK= 0.25E+00
       N       E                     dE             d eps       ncg     rms          rms(c)
DAV:   1    -0.177818233894E+04   -0.99305E+00   -0.12183E-01  2808   0.332E+00    0.137E-01
RMM:   2    -0.177819517829E+04   -0.12839E-01   -0.13091E-01  1568   0.374E-01    0.108E-01
RMM:   3    -0.177819547698E+04   -0.29869E-03   -0.59373E-03  1799   0.588E-02    0.827E-02
RMM:   4    -0.177819540777E+04    0.69206E-04   -0.38208E-04  1125   0.176E-02
  992 T=  4264. E= -.16599517E+04 F= -.17781954E+04 E0= -.17781954E+04  EK= 0.13339E+03 SP= -.15E+02 SK= 0.18E+00
       N       E                     dE             d eps       ncg     rms          rms(c)
DAV:   1    -0.177916286489E+04   -0.96739E+00   -0.11878E-01  2832   0.335E+00    0.149E-01
RMM:   2    -0.177917540904E+04   -0.12544E-01   -0.12892E-01  1568   0.375E-01    0.104E-01
RMM:   3    -0.177917568356E+04   -0.27452E-03   -0.56727E-03  1798   0.581E-02    0.775E-02
RMM:   4    -0.177917561576E+04    0.67799E-04   -0.36420E-04  1111   0.173E-02
  993 T=  4328. E= -.16599665E+04 F= -.17791756E+04 E0= -.17791756E+04  EK= 0.13538E+03 SP= -.16E+02 SK= 0.11E+00
       N       E                     dE             d eps       ncg     rms          rms(c)
DAV:   1    -0.178009690457E+04   -0.92122E+00   -0.10296E-01  2856   0.337E+00    0.132E-01
RMM:   2    -0.178010951104E+04   -0.12606E-01   -0.12822E-01  1568   0.375E-01    0.109E-01
RMM:   3    -0.178010979911E+04   -0.28807E-03   -0.57826E-03  1795   0.583E-02    0.842E-02
RMM:   4    -0.178010972016E+04    0.78948E-04   -0.36860E-04  1112   0.173E-02
  994 T=  4382. E= -.16599788E+04 F= -.17801097E+04 E0= -.17801097E+04  EK= 0.13707E+03 SP= -.17E+02 SK= 0.51E-01
       N       E                     dE             d eps       ncg     rms          rms(c)
DAV:   1    -0.178097785772E+04   -0.86806E+00   -0.10472E-01  2872   0.339E+00    0.138E-01
RMM:   2    -0.178099067826E+04   -0.12821E-01   -0.13078E-01  1568   0.376E-01    0.103E-01
RMM:   3    -0.178099101796E+04   -0.33970E-03   -0.61518E-03  1803   0.597E-02    0.789E-02
RMM:   4    -0.178099095292E+04    0.65033E-04   -0.36184E-04  1109   0.171E-02
  995 T=  4424. E= -.16599887E+04 F= -.17809910E+04 E0= -.17809910E+04  EK= 0.13840E+03 SP= -.17E+02 SK= 0.10E-01
       N       E                     dE             d eps       ncg     rms          rms(c)
DAV:   1    -0.178180825096E+04   -0.81723E+00   -0.11999E-01  2832   0.340E+00    0.145E-01
RMM:   2    -0.178182160130E+04   -0.13350E-01   -0.13663E-01  1568   0.383E-01    0.104E-01
RMM:   3    -0.178182191381E+04   -0.31251E-03   -0.61893E-03  1797   0.607E-02    0.783E-02
RMM:   4    -0.178182184493E+04    0.68885E-04   -0.36174E-04  1116   0.170E-02
  996 T=  4454. E= -.16599962E+04 F= -.17818218E+04 E0= -.17818218E+04  EK= 0.13931E+03 SP= -.17E+02 SK= 0.13E-02
       N       E                     dE             d eps       ncg     rms          rms(c)
DAV:   1    -0.178259505934E+04   -0.77315E+00   -0.11593E-01  2816   0.341E+00    0.123E-01
RMM:   2    -0.178260805152E+04   -0.12992E-01   -0.13156E-01  1568   0.376E-01    0.104E-01
RMM:   3    -0.178260836912E+04   -0.31760E-03   -0.60901E-03  1802   0.599E-02    0.826E-02
RMM:   4    -0.178260829719E+04    0.71932E-04   -0.33669E-04  1096   0.162E-02
  997 T=  4469. E= -.16600016E+04 F= -.17826083E+04 E0= -.17826083E+04  EK= 0.13980E+03 SP= -.17E+02 SK= 0.32E-01
       N       E                     dE             d eps       ncg     rms          rms(c)
DAV:   1    -0.178333903155E+04   -0.73066E+00   -0.95329E-02  2880   0.341E+00    0.127E-01
RMM:   2    -0.178335099770E+04   -0.11966E-01   -0.12172E-01  1568   0.361E-01    0.929E-02
RMM:   3    -0.178335134009E+04   -0.34239E-03   -0.59041E-03  1789   0.576E-02    0.712E-02
RMM:   4    -0.178335128605E+04    0.54036E-04   -0.30839E-04  1078   0.155E-02
  998 T=  4470. E= -.16600050E+04 F= -.17833513E+04 E0= -.17833513E+04  EK= 0.13984E+03 SP= -.17E+02 SK= 0.11E+00
       N       E                     dE             d eps       ncg     rms          rms(c)
DAV:   1    -0.178403215549E+04   -0.68082E+00   -0.94667E-02  2872   0.340E+00    0.139E-01
RMM:   2    -0.178404371421E+04   -0.11559E-01   -0.11852E-01  1568   0.358E-01    0.864E-02
RMM:   3    -0.178404404763E+04   -0.33341E-03   -0.57731E-03  1787   0.570E-02    0.633E-02
RMM:   4    -0.178404399661E+04    0.51020E-04   -0.28591E-04  1064   0.149E-02
  999 T=  4457. E= -.16600066E+04 F= -.17840440E+04 E0= -.17840440E+04  EK= 0.13943E+03 SP= -.16E+02 SK= 0.22E+00
       N       E                     dE             d eps       ncg     rms          rms(c)
DAV:   1    -0.178466056253E+04   -0.61651E+00   -0.91076E-02  2880   0.339E+00    0.113E-01
RMM:   2    -0.178467168029E+04   -0.11118E-01   -0.11256E-01  1568   0.349E-01    0.907E-02
RMM:   3    -0.178467198952E+04   -0.30923E-03   -0.55057E-03  1772   0.556E-02    0.713E-02
RMM:   4    -0.178467193022E+04    0.59301E-04   -0.26965E-04  1051   0.145E-02
 1000 T=  4430. E= -.16600058E+04 F= -.17846719E+04 E0= -.17846719E+04  EK= 0.13856E+03 SP= -.14E+02 SK= 0.37E+00
