 243 243   0   0
  0.1311304E+02  0.1499160E-08  0.1499160E-08  0.1637130E-08  0.5000000E-15
   4000.00000000000     
  CAR 
 (Si O2)81  (P1) ~ 3x3x3Supersel (VASP)  
     11.78334160    -21.40914861  301      3.27776598      1.00000000
    -21.409  0.0000E+00  0.0000E+00
    -21.299  0.0000E+00  0.0000E+00
    -21.188  0.0000E+00  0.0000E+00
    -21.077  0.0000E+00  0.0000E+00
    -20.967  0.0000E+00  0.0000E+00
    -20.856  0.0000E+00  0.0000E+00
    -20.745  0.0000E+00  0.0000E+00
    -20.635  0.0000E+00  0.0000E+00
    -20.524  0.0000E+00  0.0000E+00
    -20.413  0.0000E+00  0.0000E+00
    -20.303  0.0000E+00  0.0000E+00
    -20.192  0.1608E-14  0.1770E-15
    -20.081  0.2739E-05  0.3026E-06
    -19.971  0.4258E+00  0.4717E-01
    -19.860  0.1688E+02  0.1917E+01
    -19.750  0.7492E+01  0.2743E+01
    -19.639  0.7435E+01  0.3562E+01
    -19.528  0.9500E+01  0.4608E+01
    -19.418  0.1117E+02  0.5840E+01
    -19.307  0.1276E+02  0.7247E+01
    -19.196  0.1490E+02  0.8890E+01
    -19.086  0.1891E+02  0.1098E+02
    -18.975  0.2276E+02  0.1349E+02
    -18.864  0.2657E+02  0.1642E+02
    -18.754  0.2887E+02  0.1961E+02
    -18.643  0.3220E+02  0.2317E+02
    -18.532  0.3660E+02  0.2722E+02
    -18.422  0.4128E+02  0.3178E+02
    -18.311  0.4452E+02  0.3671E+02
    -18.201  0.4910E+02  0.4214E+02
    -18.090  0.5230E+02  0.4793E+02
    -17.979  0.5498E+02  0.5401E+02
    -17.869  0.5658E+02  0.6028E+02
    -17.758  0.6063E+02  0.6699E+02
    -17.647  0.6426E+02  0.7410E+02
    -17.537  0.6733E+02  0.8156E+02
    -17.426  0.6986E+02  0.8930E+02
    -17.315  0.7163E+02  0.9723E+02
    -17.205  0.7471E+02  0.1055E+03
    -17.094  0.7725E+02  0.1141E+03
    -16.983  0.7702E+02  0.1226E+03
    -16.873  0.7794E+02  0.1312E+03
    -16.762  0.8012E+02  0.1401E+03
    -16.652  0.8113E+02  0.1491E+03
    -16.541  0.8240E+02  0.1582E+03
    -16.430  0.8396E+02  0.1675E+03
    -16.320  0.8393E+02  0.1769E+03
    -16.209  0.8335E+02  0.1861E+03
    -16.098  0.8361E+02  0.1954E+03
    -15.988  0.8295E+02  0.2046E+03
    -15.877  0.8242E+02  0.2137E+03
    -15.766  0.8086E+02  0.2227E+03
    -15.656  0.7974E+02  0.2315E+03
    -15.545  0.7587E+02  0.2399E+03
    -15.435  0.7202E+02  0.2479E+03
    -15.324  0.6994E+02  0.2557E+03
    -15.213  0.6628E+02  0.2631E+03
    -15.103  0.6236E+02  0.2700E+03
    -14.992  0.5825E+02  0.2765E+03
    -14.881  0.5295E+02  0.2823E+03
    -14.771  0.4919E+02  0.2878E+03
    -14.660  0.4395E+02  0.2927E+03
    -14.549  0.3872E+02  0.2970E+03
    -14.439  0.3630E+02  0.3010E+03
    -14.328  0.3332E+02  0.3047E+03
    -14.217  0.2896E+02  0.3080E+03
    -14.107  0.2483E+02  0.3107E+03
    -13.996  0.2172E+02  0.3131E+03
    -13.886  0.1919E+02  0.3153E+03
    -13.775  0.1674E+02  0.3171E+03
    -13.664  0.1350E+02  0.3187E+03
    -13.554  0.1056E+02  0.3198E+03
    -13.443  0.7995E+01  0.3207E+03
    -13.332  0.6374E+01  0.3214E+03
    -13.222  0.4779E+01  0.3220E+03
    -13.111  0.3671E+01  0.3224E+03
    -13.000  0.2914E+01  0.3227E+03
    -12.890  0.2502E+01  0.3230E+03
    -12.779  0.1886E+01  0.3232E+03
    -12.668  0.1582E+01  0.3234E+03
    -12.558  0.1311E+01  0.3235E+03
    -12.447  0.1188E+01  0.3236E+03
    -12.337  0.1113E+01  0.3238E+03
    -12.226  0.8516E+00  0.3239E+03
    -12.115  0.5080E+00  0.3239E+03
    -12.005  0.4254E+00  0.3240E+03
    -11.894  0.2611E+00  0.3240E+03
    -11.783  0.7579E-01  0.3240E+03
    -11.673  0.2548E-01  0.3240E+03
    -11.562  0.2651E-04  0.3240E+03
    -11.451  0.3178E-11  0.3240E+03
    -11.341  0.0000E+00  0.3240E+03
    -11.230  0.0000E+00  0.3240E+03
    -11.119  0.0000E+00  0.3240E+03
    -11.009  0.0000E+00  0.3240E+03
    -10.898  0.0000E+00  0.3240E+03
    -10.788  0.0000E+00  0.3240E+03
    -10.677  0.0000E+00  0.3240E+03
    -10.566  0.0000E+00  0.3240E+03
    -10.456  0.0000E+00  0.3240E+03
    -10.345  0.0000E+00  0.3240E+03
    -10.234  0.0000E+00  0.3240E+03
    -10.124  0.0000E+00  0.3240E+03
    -10.013  0.0000E+00  0.3240E+03
     -9.902  0.0000E+00  0.3240E+03
     -9.792  0.0000E+00  0.3240E+03
     -9.681  0.0000E+00  0.3240E+03
     -9.570  0.0000E+00  0.3240E+03
     -9.460  0.1114E-10  0.3240E+03
     -9.349  0.5835E-04  0.3240E+03
     -9.239  0.6707E-01  0.3240E+03
     -9.128  0.6565E+00  0.3241E+03
     -9.017  0.1888E+01  0.3243E+03
     -8.907  0.3585E+01  0.3247E+03
     -8.796  0.5731E+01  0.3253E+03
     -8.685  0.7270E+01  0.3261E+03
     -8.575  0.9318E+01  0.3272E+03
     -8.464  0.1125E+02  0.3284E+03
     -8.353  0.1331E+02  0.3299E+03
     -8.243  0.1489E+02  0.3315E+03
     -8.132  0.1796E+02  0.3335E+03
     -8.022  0.2123E+02  0.3358E+03
     -7.911  0.2392E+02  0.3385E+03
     -7.800  0.2629E+02  0.3414E+03
     -7.690  0.2949E+02  0.3447E+03
     -7.579  0.3271E+02  0.3483E+03
     -7.468  0.3416E+02  0.3521E+03
     -7.358  0.3630E+02  0.3561E+03
     -7.247  0.3704E+02  0.3602E+03
     -7.136  0.3800E+02  0.3644E+03
     -7.026  0.3823E+02  0.3686E+03
     -6.915  0.3587E+02  0.3726E+03
     -6.804  0.3815E+02  0.3769E+03
     -6.694  0.3838E+02  0.3811E+03
     -6.583  0.4019E+02  0.3856E+03
     -6.473  0.4002E+02  0.3900E+03
     -6.362  0.4162E+02  0.3946E+03
     -6.251  0.4243E+02  0.3993E+03
     -6.141  0.4368E+02  0.4042E+03
     -6.030  0.4389E+02  0.4090E+03
     -5.919  0.4507E+02  0.4140E+03
     -5.809  0.4724E+02  0.4192E+03
     -5.698  0.4909E+02  0.4247E+03
     -5.587  0.4904E+02  0.4301E+03
     -5.477  0.5112E+02  0.4358E+03
     -5.366  0.5154E+02  0.4415E+03
     -5.255  0.5325E+02  0.4474E+03
     -5.145  0.5621E+02  0.4536E+03
     -5.034  0.5761E+02  0.4600E+03
     -4.924  0.6102E+02  0.4668E+03
     -4.813  0.6320E+02  0.4738E+03
     -4.702  0.6577E+02  0.4811E+03
     -4.592  0.6830E+02  0.4886E+03
     -4.481  0.7145E+02  0.4966E+03
     -4.370  0.7513E+02  0.5049E+03
     -4.260  0.7780E+02  0.5135E+03
     -4.149  0.8027E+02  0.5224E+03
     -4.038  0.8287E+02  0.5316E+03
     -3.928  0.8422E+02  0.5409E+03
     -3.817  0.8538E+02  0.5504E+03
     -3.706  0.8691E+02  0.5600E+03
     -3.596  0.8706E+02  0.5697E+03
     -3.485  0.8731E+02  0.5794E+03
     -3.375  0.8788E+02  0.5891E+03
     -3.264  0.8976E+02  0.5991E+03
     -3.153  0.9135E+02  0.6092E+03
     -3.043  0.9315E+02  0.6195E+03
     -2.932  0.9546E+02  0.6301E+03
     -2.821  0.9788E+02  0.6409E+03
     -2.711  0.1010E+03  0.6521E+03
     -2.600  0.1050E+03  0.6638E+03
     -2.489  0.1094E+03  0.6759E+03
     -2.379  0.1141E+03  0.6885E+03
     -2.268  0.1188E+03  0.7017E+03
     -2.158  0.1222E+03  0.7153E+03
     -2.047  0.1251E+03  0.7291E+03
     -1.936  0.1280E+03  0.7433E+03
     -1.826  0.1325E+03  0.7580E+03
     -1.715  0.1378E+03  0.7733E+03
     -1.604  0.1411E+03  0.7889E+03
     -1.494  0.1437E+03  0.8048E+03
     -1.383  0.1458E+03  0.8210E+03
     -1.272  0.1489E+03  0.8375E+03
     -1.162  0.1505E+03  0.8542E+03
     -1.051  0.1520E+03  0.8710E+03
     -0.940  0.1557E+03  0.8883E+03
     -0.830  0.1543E+03  0.9054E+03
     -0.719  0.1555E+03  0.9227E+03
     -0.609  0.1575E+03  0.9401E+03
     -0.498  0.1558E+03  0.9574E+03
     -0.387  0.1561E+03  0.9747E+03
     -0.277  0.1564E+03  0.9920E+03
     -0.166  0.1569E+03  0.1009E+04
     -0.055  0.1568E+03  0.1027E+04
      0.055  0.1559E+03  0.1044E+04
      0.166  0.1532E+03  0.1061E+04
      0.277  0.1519E+03  0.1078E+04
      0.387  0.1488E+03  0.1094E+04
      0.498  0.1461E+03  0.1111E+04
      0.609  0.1418E+03  0.1126E+04
      0.719  0.1385E+03  0.1142E+04
      0.830  0.1336E+03  0.1157E+04
      0.940  0.1276E+03  0.1171E+04
      1.051  0.1223E+03  0.1184E+04
      1.162  0.1176E+03  0.1197E+04
      1.272  0.1114E+03  0.1210E+04
      1.383  0.1034E+03  0.1221E+04
      1.494  0.9572E+02  0.1232E+04
      1.604  0.8753E+02  0.1241E+04
      1.715  0.7812E+02  0.1250E+04
      1.826  0.7048E+02  0.1258E+04
      1.936  0.6170E+02  0.1265E+04
      2.047  0.5450E+02  0.1271E+04
      2.158  0.4626E+02  0.1276E+04
      2.268  0.3786E+02  0.1280E+04
      2.379  0.3184E+02  0.1284E+04
      2.489  0.2617E+02  0.1287E+04
      2.600  0.2100E+02  0.1289E+04
      2.711  0.1654E+02  0.1291E+04
      2.821  0.1230E+02  0.1292E+04
      2.932  0.8991E+01  0.1293E+04
      3.043  0.6382E+01  0.1294E+04
      3.153  0.5259E+01  0.1294E+04
      3.264  0.3719E+01  0.1295E+04
      3.375  0.3238E+01  0.1295E+04
      3.485  0.2458E+01  0.1296E+04
      3.596  0.1683E+01  0.1296E+04
      3.707  0.1544E+01  0.1296E+04
      3.817  0.1067E+01  0.1296E+04
      3.928  0.1337E+01  0.1296E+04
      4.038  0.1600E+01  0.1296E+04
      4.149  0.2209E+01  0.1297E+04
      4.260  0.3180E+01  0.1297E+04
      4.370  0.3898E+01  0.1297E+04
      4.481  0.4939E+01  0.1298E+04
      4.592  0.5993E+01  0.1299E+04
      4.702  0.7084E+01  0.1299E+04
      4.813  0.7917E+01  0.1300E+04
      4.924  0.8193E+01  0.1301E+04
      5.034  0.8445E+01  0.1302E+04
      5.145  0.9597E+01  0.1303E+04
      5.255  0.1124E+02  0.1304E+04
      5.366  0.1398E+02  0.1306E+04
      5.477  0.1584E+02  0.1308E+04
      5.587  0.1723E+02  0.1310E+04
      5.698  0.1928E+02  0.1312E+04
      5.809  0.2042E+02  0.1314E+04
      5.919  0.2207E+02  0.1316E+04
      6.030  0.2416E+02  0.1319E+04
      6.141  0.2638E+02  0.1322E+04
      6.251  0.2893E+02  0.1325E+04
      6.362  0.2985E+02  0.1329E+04
      6.473  0.3159E+02  0.1332E+04
      6.583  0.3221E+02  0.1336E+04
      6.694  0.3296E+02  0.1339E+04
      6.804  0.3464E+02  0.1343E+04
      6.915  0.3764E+02  0.1347E+04
      7.026  0.3815E+02  0.1352E+04
      7.136  0.3965E+02  0.1356E+04
      7.247  0.4084E+02  0.1360E+04
      7.358  0.4373E+02  0.1365E+04
      7.468  0.4536E+02  0.1370E+04
      7.579  0.4705E+02  0.1376E+04
      7.690  0.4914E+02  0.1381E+04
      7.800  0.5116E+02  0.1387E+04
      7.911  0.5194E+02  0.1392E+04
      8.022  0.5517E+02  0.1399E+04
      8.132  0.5667E+02  0.1405E+04
      8.243  0.5908E+02  0.1411E+04
      8.353  0.6163E+02  0.1418E+04
      8.464  0.6370E+02  0.1425E+04
      8.575  0.6608E+02  0.1433E+04
      8.685  0.6946E+02  0.1440E+04
      8.796  0.7344E+02  0.1448E+04
      8.907  0.7495E+02  0.1457E+04
      9.017  0.7686E+02  0.1465E+04
      9.128  0.7932E+02  0.1474E+04
      9.239  0.8084E+02  0.1483E+04
      9.349  0.8272E+02  0.1492E+04
      9.460  0.8397E+02  0.1501E+04
      9.571  0.8451E+02  0.1511E+04
      9.681  0.8563E+02  0.1520E+04
      9.792  0.8566E+02  0.1530E+04
      9.902  0.8329E+02  0.1539E+04
     10.013  0.8200E+02  0.1548E+04
     10.124  0.7981E+02  0.1557E+04
     10.234  0.6829E+02  0.1565E+04
     10.345  0.3011E+02  0.1568E+04
     10.456  0.4589E+00  0.1568E+04
     10.566  0.2766E-05  0.1568E+04
     10.677  0.9042E-15  0.1568E+04
     10.788  0.0000E+00  0.1568E+04
     10.898  0.0000E+00  0.1568E+04
     11.009  0.0000E+00  0.1568E+04
     11.119  0.0000E+00  0.1568E+04
     11.230  0.0000E+00  0.1568E+04
     11.341  0.0000E+00  0.1568E+04
     11.451  0.0000E+00  0.1568E+04
     11.562  0.0000E+00  0.1568E+04
     11.673  0.0000E+00  0.1568E+04
     11.783  0.0000E+00  0.1568E+04
     11.87861993    -21.42516889  301      3.22657313      1.00000000
    -21.425  0.0000E+00  0.0000E+00
    -21.314  0.0000E+00  0.0000E+00
    -21.203  0.0000E+00  0.0000E+00
    -21.092  0.0000E+00  0.0000E+00
    -20.981  0.0000E+00  0.0000E+00
    -20.870  0.0000E+00  0.0000E+00
    -20.759  0.0000E+00  0.0000E+00
    -20.648  0.0000E+00  0.0000E+00
    -20.537  0.0000E+00  0.0000E+00
    -20.426  0.0000E+00  0.0000E+00
    -20.315  0.0000E+00  0.0000E+00
    -20.204  0.1000E-17  0.1110E-18
    -20.093  0.2501E-08  0.2776E-09
    -19.982  0.4117E-03  0.4570E-04
    -19.871  0.1532E-01  0.1746E-02
    -19.760  0.2284E-02  0.2000E-02
    -19.649  0.1671E-06  0.2000E-02
    -19.538  0.2769E-07  0.2000E-02
    -19.427  0.1144E-02  0.2127E-02
    -19.316  0.1784E-01  0.4108E-02
    -19.205  0.1652E-01  0.5942E-02
    -19.094  0.6592E-03  0.6016E-02
    -18.983  0.2124E-01  0.8373E-02
    -18.872  0.4728E-01  0.1362E-01
    -18.761  0.4174E-01  0.1826E-01
    -18.650  0.5915E-01  0.2482E-01
    -18.539  0.5287E-01  0.3069E-01
    -18.428  0.3512E-01  0.3459E-01
    -18.317  0.2958E-01  0.3787E-01
    -18.206  0.2085E-01  0.4019E-01
    -18.095  0.4967E-01  0.4570E-01
    -17.984  0.7361E-01  0.5387E-01
    -17.873  0.6960E-01  0.6160E-01
    -17.762  0.6956E-01  0.6932E-01
    -17.651  0.5283E-01  0.7519E-01
    -17.540  0.5615E-01  0.8142E-01
    -17.429  0.8641E-01  0.9101E-01
    -17.318  0.5915E-01  0.9758E-01
    -17.207  0.4669E-01  0.1028E+00
    -17.096  0.7505E-01  0.1111E+00
    -16.985  0.8169E-01  0.1202E+00
    -16.874  0.9613E-01  0.1308E+00
    -16.763  0.8789E-01  0.1406E+00
    -16.652  0.8951E-01  0.1505E+00
    -16.541  0.7965E-01  0.1594E+00
    -16.430  0.7962E-01  0.1682E+00
    -16.319  0.9477E-01  0.1787E+00
    -16.208  0.7831E-01  0.1874E+00
    -16.097  0.8889E-01  0.1973E+00
    -15.986  0.1171E+00  0.2103E+00
    -15.875  0.9612E-01  0.2210E+00
    -15.764  0.8261E-01  0.2301E+00
    -15.653  0.1079E+00  0.2421E+00
    -15.541  0.7322E-01  0.2502E+00
    -15.430  0.5698E-01  0.2566E+00
    -15.319  0.4956E-01  0.2621E+00
    -15.208  0.7914E-01  0.2709E+00
    -15.097  0.7235E-01  0.2789E+00
    -14.986  0.6732E-01  0.2864E+00
    -14.875  0.6048E-01  0.2931E+00
    -14.764  0.4481E-01  0.2980E+00
    -14.653  0.2667E-01  0.3010E+00
    -14.542  0.3176E-01  0.3045E+00
    -14.431  0.2164E-01  0.3069E+00
    -14.320  0.2829E-01  0.3101E+00
    -14.209  0.2322E-01  0.3127E+00
    -14.098  0.2462E-01  0.3154E+00
    -13.987  0.4156E-01  0.3200E+00
    -13.876  0.1792E-01  0.3220E+00
    -13.765  0.9052E-04  0.3220E+00
    -13.654  0.9590E-10  0.3220E+00
    -13.543  0.1100E-16  0.3220E+00
    -13.432  0.1020E-07  0.3220E+00
    -13.321  0.7578E-03  0.3221E+00
    -13.210  0.1584E-01  0.3238E+00
    -13.099  0.1421E-02  0.3240E+00
    -12.988  0.4774E-07  0.3240E+00
    -12.877  0.1300E-15  0.3240E+00
    -12.766  0.0000E+00  0.3240E+00
    -12.655  0.0000E+00  0.3240E+00
    -12.544  0.0000E+00  0.3240E+00
    -12.433  0.0000E+00  0.3240E+00
    -12.322  0.0000E+00  0.3240E+00
    -12.211  0.0000E+00  0.3240E+00
    -12.100  0.0000E+00  0.3240E+00
    -11.989  0.0000E+00  0.3240E+00
    -11.878  0.0000E+00  0.3240E+00
    -11.767  0.0000E+00  0.3240E+00
    -11.656  0.0000E+00  0.3240E+00
    -11.545  0.0000E+00  0.3240E+00
    -11.434  0.0000E+00  0.3240E+00
    -11.323  0.0000E+00  0.3240E+00
    -11.212  0.0000E+00  0.3240E+00
    -11.101  0.0000E+00  0.3240E+00
    -10.990  0.0000E+00  0.3240E+00
    -10.879  0.0000E+00  0.3240E+00
    -10.768  0.0000E+00  0.3240E+00
    -10.657  0.0000E+00  0.3240E+00
    -10.546  0.0000E+00  0.3240E+00
    -10.435  0.0000E+00  0.3240E+00
    -10.324  0.0000E+00  0.3240E+00
    -10.213  0.0000E+00  0.3240E+00
    -10.102  0.0000E+00  0.3240E+00
     -9.991  0.0000E+00  0.3240E+00
     -9.880  0.0000E+00  0.3240E+00
     -9.769  0.0000E+00  0.3240E+00
     -9.658  0.0000E+00  0.3240E+00
     -9.547  0.0000E+00  0.3240E+00
     -9.436  0.0000E+00  0.3240E+00
     -9.325  0.0000E+00  0.3240E+00
     -9.214  0.0000E+00  0.3240E+00
     -9.103  0.0000E+00  0.3240E+00
     -8.992  0.1342E-12  0.3240E+00
     -8.881  0.2769E-05  0.3240E+00
     -8.770  0.5753E-02  0.3246E+00
     -8.659  0.1221E-01  0.3260E+00
     -8.548  0.8928E-02  0.3270E+00
     -8.437  0.9126E-02  0.3280E+00
     -8.326  0.1622E-04  0.3280E+00
     -8.215  0.4621E-03  0.3281E+00
     -8.104  0.2738E-01  0.3311E+00
     -7.993  0.1409E-01  0.3327E+00
     -7.882  0.2418E-01  0.3353E+00
     -7.771  0.3259E-01  0.3390E+00
     -7.660  0.3770E-01  0.3431E+00
     -7.549  0.2169E-01  0.3455E+00
     -7.438  0.3842E-01  0.3498E+00
     -7.327  0.6204E-01  0.3567E+00
     -7.216  0.3940E-01  0.3611E+00
     -7.105  0.4749E-01  0.3663E+00
     -6.994  0.3958E-01  0.3707E+00
     -6.883  0.4031E-01  0.3752E+00
     -6.772  0.4516E-01  0.3802E+00
     -6.660  0.4169E-01  0.3849E+00
     -6.549  0.4029E-01  0.3893E+00
     -6.438  0.4649E-01  0.3945E+00
     -6.327  0.1892E-01  0.3966E+00
     -6.216  0.3930E-01  0.4010E+00
     -6.105  0.3678E-01  0.4050E+00
     -5.994  0.4969E-01  0.4106E+00
     -5.883  0.5487E-01  0.4166E+00
     -5.772  0.4642E-01  0.4218E+00
     -5.661  0.4930E-01  0.4273E+00
     -5.550  0.4109E-01  0.4318E+00
     -5.439  0.5056E-01  0.4374E+00
     -5.328  0.3790E-01  0.4417E+00
     -5.217  0.6183E-01  0.4485E+00
     -5.106  0.6512E-01  0.4557E+00
     -4.995  0.5509E-01  0.4619E+00
     -4.884  0.7268E-01  0.4699E+00
     -4.773  0.5292E-01  0.4758E+00
     -4.662  0.6274E-01  0.4828E+00
     -4.551  0.7711E-01  0.4913E+00
     -4.440  0.7160E-01  0.4993E+00
     -4.329  0.8310E-01  0.5085E+00
     -4.218  0.9275E-01  0.5188E+00
     -4.107  0.7380E-01  0.5270E+00
     -3.996  0.8099E-01  0.5360E+00
     -3.885  0.8436E-01  0.5454E+00
     -3.774  0.8698E-01  0.5550E+00
     -3.663  0.8022E-01  0.5639E+00
     -3.552  0.7873E-01  0.5727E+00
     -3.441  0.1117E+00  0.5850E+00
     -3.330  0.9479E-01  0.5956E+00
     -3.219  0.9495E-01  0.6061E+00
     -3.108  0.1159E+00  0.6190E+00
     -2.997  0.9836E-01  0.6299E+00
     -2.886  0.9914E-01  0.6409E+00
     -2.775  0.1033E+00  0.6524E+00
     -2.664  0.9707E-01  0.6631E+00
     -2.553  0.9059E-01  0.6732E+00
     -2.442  0.1121E+00  0.6856E+00
     -2.331  0.1028E+00  0.6971E+00
     -2.220  0.1166E+00  0.7100E+00
     -2.109  0.1317E+00  0.7246E+00
     -1.998  0.1398E+00  0.7402E+00
     -1.887  0.1151E+00  0.7529E+00
     -1.776  0.1449E+00  0.7690E+00
     -1.665  0.1458E+00  0.7852E+00
     -1.554  0.1510E+00  0.8020E+00
     -1.443  0.1407E+00  0.8176E+00
     -1.332  0.1539E+00  0.8347E+00
     -1.221  0.1430E+00  0.8505E+00
     -1.110  0.1572E+00  0.8680E+00
     -0.999  0.1672E+00  0.8865E+00
     -0.888  0.1525E+00  0.9035E+00
     -0.777  0.1465E+00  0.9197E+00
     -0.666  0.1457E+00  0.9359E+00
     -0.555  0.1445E+00  0.9520E+00
     -0.444  0.1452E+00  0.9681E+00
     -0.333  0.1571E+00  0.9855E+00
     -0.222  0.1743E+00  0.1005E+01
     -0.111  0.1739E+00  0.1024E+01
      0.000  0.1676E+00  0.1043E+01
      0.111  0.1715E+00  0.1062E+01
      0.222  0.1704E+00  0.1081E+01
      0.333  0.1364E+00  0.1096E+01
      0.444  0.1333E+00  0.1111E+01
      0.555  0.1413E+00  0.1126E+01
      0.666  0.1247E+00  0.1140E+01
      0.777  0.1173E+00  0.1153E+01
      0.888  0.1093E+00  0.1165E+01
      0.999  0.1181E+00  0.1178E+01
      1.110  0.1344E+00  0.1193E+01
      1.221  0.1274E+00  0.1208E+01
      1.332  0.1069E+00  0.1219E+01
      1.443  0.1327E+00  0.1234E+01
      1.554  0.8795E-01  0.1244E+01
      1.665  0.6605E-01  0.1251E+01
      1.776  0.6059E-01  0.1258E+01
      1.887  0.8625E-01  0.1268E+01
      1.998  0.5146E-01  0.1273E+01
      2.110  0.7803E-01  0.1282E+01
      2.221  0.2635E-01  0.1285E+01
      2.332  0.1070E-01  0.1286E+01
      2.443  0.1977E-01  0.1288E+01
      2.554  0.2923E-01  0.1291E+01
      2.665  0.5023E-02  0.1292E+01
      2.776  0.6598E-02  0.1293E+01
      2.887  0.1746E-01  0.1295E+01
      2.998  0.1191E-01  0.1296E+01
      3.109  0.5828E-04  0.1296E+01
      3.220  0.4098E-10  0.1296E+01
      3.331  0.0000E+00  0.1296E+01
      3.442  0.0000E+00  0.1296E+01
      3.553  0.0000E+00  0.1296E+01
      3.664  0.0000E+00  0.1296E+01
      3.775  0.0000E+00  0.1296E+01
      3.886  0.0000E+00  0.1296E+01
      3.997  0.2426E-09  0.1296E+01
      4.108  0.1397E-03  0.1296E+01
      4.219  0.1363E-01  0.1298E+01
      4.330  0.4249E-02  0.1298E+01
      4.441  0.2163E-03  0.1298E+01
      4.552  0.1439E-01  0.1300E+01
      4.663  0.4420E-02  0.1300E+01
      4.774  0.1595E-01  0.1302E+01
      4.885  0.1419E-01  0.1303E+01
      4.996  0.2258E-01  0.1306E+01
      5.107  0.3344E-03  0.1306E+01
      5.218  0.9808E-02  0.1307E+01
      5.329  0.2626E-01  0.1310E+01
      5.440  0.2376E-01  0.1313E+01
      5.551  0.2718E-01  0.1316E+01
      5.662  0.1525E-01  0.1317E+01
      5.773  0.2401E-01  0.1320E+01
      5.884  0.2302E-01  0.1323E+01
      5.995  0.2082E-01  0.1325E+01
      6.106  0.3875E-01  0.1329E+01
      6.217  0.2559E-01  0.1332E+01
      6.328  0.2732E-01  0.1335E+01
      6.439  0.9150E-02  0.1336E+01
      6.550  0.3017E-01  0.1339E+01
      6.661  0.3266E-01  0.1343E+01
      6.772  0.5753E-01  0.1349E+01
      6.883  0.3832E-01  0.1354E+01
      6.994  0.4041E-01  0.1358E+01
      7.105  0.4852E-01  0.1364E+01
      7.216  0.1777E-01  0.1366E+01
      7.327  0.3104E-01  0.1369E+01
      7.438  0.3859E-01  0.1373E+01
      7.549  0.3093E-01  0.1377E+01
      7.660  0.5078E-01  0.1382E+01
      7.771  0.4211E-01  0.1387E+01
      7.882  0.5298E-01  0.1393E+01
      7.993  0.4555E-01  0.1398E+01
      8.104  0.4796E-01  0.1403E+01
      8.215  0.5292E-01  0.1409E+01
      8.326  0.6696E-01  0.1417E+01
      8.437  0.8298E-01  0.1426E+01
      8.548  0.5787E-01  0.1432E+01
      8.659  0.7359E-01  0.1440E+01
      8.770  0.7631E-01  0.1449E+01
      8.881  0.7526E-01  0.1457E+01
      8.992  0.7055E-01  0.1465E+01
      9.103  0.7901E-01  0.1474E+01
      9.214  0.7706E-01  0.1482E+01
      9.325  0.6821E-01  0.1490E+01
      9.436  0.9232E-01  0.1500E+01
      9.547  0.7047E-01  0.1508E+01
      9.658  0.8769E-01  0.1518E+01
      9.769  0.8206E-01  0.1527E+01
      9.880  0.7484E-01  0.1535E+01
      9.991  0.7651E-01  0.1544E+01
     10.102  0.6819E-01  0.1551E+01
     10.213  0.8375E-01  0.1561E+01
     10.324  0.4995E-01  0.1566E+01
     10.435  0.1694E-01  0.1568E+01
     10.546  0.4117E-03  0.1568E+01
     10.657  0.2501E-08  0.1568E+01
     10.768  0.0000E+00  0.1568E+01
     10.880  0.0000E+00  0.1568E+01
     10.991  0.0000E+00  0.1568E+01
     11.102  0.0000E+00  0.1568E+01
     11.213  0.0000E+00  0.1568E+01
     11.324  0.0000E+00  0.1568E+01
     11.435  0.0000E+00  0.1568E+01
     11.546  0.0000E+00  0.1568E+01
     11.657  0.0000E+00  0.1568E+01
     11.768  0.0000E+00  0.1568E+01
     11.879  0.0000E+00  0.1568E+01
