  243  243 1000    1
  0.1311304E+02  0.1499160E-08  0.1499160E-08  0.1637130E-08  0.5000000E-15
   4000.00000000000     
  CAR 
 (Si O2)81  (P1) ~ 3x3x3Supersel (VASP)  
   1296      1    784
 
  0.0000000E+00  0.0000000E+00  0.0000000E+00  0.1000000E+01
    1      -19.911360
    2      -19.372994
    3      -19.272042
    4      -19.007730
    5      -18.974960
    6      -18.906087
    7      -18.875855
    8      -18.865327
    9      -18.786932
   10      -18.738630
   11      -18.710159
   12      -18.688155
   13      -18.631725
   14      -18.623672
   15      -18.596707
   16      -18.530049
   17      -18.450369
   18      -18.428448
   19      -18.370200
   20      -18.219155
   21      -18.196207
   22      -18.148780
   23      -18.088818
   24      -18.068199
   25      -18.059072
   26      -18.046409
   27      -18.019240
   28      -17.942167
   29      -17.913099
   30      -17.903161
   31      -17.894723
   32      -17.842987
   33      -17.835611
   34      -17.818872
   35      -17.779230
   36      -17.697601
   37      -17.684515
   38      -17.670900
   39      -17.611380
   40      -17.563867
   41      -17.529777
   42      -17.527395
   43      -17.509963
   44      -17.464421
   45      -17.455578
   46      -17.431904
   47      -17.413399
   48      -17.357112
   49      -17.349330
   50      -17.266737
   51      -17.254579
   52      -17.190912
   53      -17.166147
   54      -17.147125
   55      -17.128050
   56      -17.099548
   57      -17.069686
   58      -17.034931
   59      -17.008884
   60      -16.990375
   61      -16.978994
   62      -16.959308
   63      -16.947576
   64      -16.908548
   65      -16.904493
   66      -16.886591
   67      -16.823235
   68      -16.813132
   69      -16.807877
   70      -16.774487
   71      -16.766606
   72      -16.733887
   73      -16.716075
   74      -16.697226
   75      -16.670213
   76      -16.658314
   77      -16.606395
   78      -16.575304
   79      -16.573359
   80      -16.552785
   81      -16.531478
   82      -16.463251
   83      -16.451854
   84      -16.445954
   85      -16.430377
   86      -16.397381
   87      -16.383118
   88      -16.378993
   89      -16.333303
   90      -16.308111
   91      -16.296921
   92      -16.279818
   93      -16.225850
   94      -16.207508
   95      -16.201946
   96      -16.151152
   97      -16.146858
   98      -16.123214
   99      -16.091470
  100      -16.077370
  101      -16.055609
  102      -16.049024
  103      -16.037186
  104      -16.019418
  105      -15.992405
  106      -15.979533
  107      -15.970999
  108      -15.935223
  109      -15.910446
  110      -15.895794
  111      -15.884413
  112      -15.849065
  113      -15.823992
  114      -15.808922
  115      -15.774012
  116      -15.743991
  117      -15.739754
  118      -15.699232
  119      -15.687260
  120      -15.668646
  121      -15.666886
  122      -15.655409
  123      -15.643825
  124      -15.592156
  125      -15.570171
  126      -15.531092
  127      -15.469046
  128      -15.441237
  129      -15.427503
  130      -15.413599
  131      -15.358211
  132      -15.279233
  133      -15.250146
  134      -15.238649
  135      -15.234048
  136      -15.225680
  137      -15.187420
  138      -15.141923
  139      -15.118656
  140      -15.103403
  141      -15.069747
  142      -15.035282
  143      -14.997203
  144      -14.991531
  145      -14.937666
  146      -14.905382
  147      -14.874237
  148      -14.844428
  149      -14.829604
  150      -14.711547
  151      -14.656239
  152      -14.581464
  153      -14.533512
  154      -14.427449
  155      -14.353460
  156      -14.292288
  157      -14.194327
  158      -14.101144
  159      -14.063129
  160      -14.008910
  161      -13.967537
  162      -13.260179
  163       -8.753144
  164       -8.547045
  165       -8.143478
  166       -8.119713
  167       -7.976746
  168       -7.881850
  169       -7.847891
  170       -7.759992
  171       -7.727185
  172       -7.668095
  173       -7.570777
  174       -7.485695
  175       -7.449704
  176       -7.415937
  177       -7.386860
  178       -7.358615
  179       -7.332905
  180       -7.244776
  181       -7.225925
  182       -7.172783
  183       -7.137855
  184       -7.092628
  185       -7.012226
  186       -7.000507
  187       -6.946887
  188       -6.874939
  189       -6.850878
  190       -6.821871
  191       -6.736298
  192       -6.712016
  193       -6.658366
  194       -6.598058
  195       -6.564216
  196       -6.496161
  197       -6.479520
  198       -6.431385
  199       -6.306385
  200       -6.255268
  201       -6.225106
  202       -6.145443
  203       -6.090076
  204       -6.085948
  205       -6.036501
  206       -5.979886
  207       -5.937013
  208       -5.911487
  209       -5.882398
  210       -5.840293
  211       -5.791237
  212       -5.743634
  213       -5.696502
  214       -5.666044
  215       -5.637906
  216       -5.551417
  217       -5.536049
  218       -5.497365
  219       -5.453585
  220       -5.397955
  221       -5.326692
  222       -5.308281
  223       -5.276919
  224       -5.248589
  225       -5.202621
  226       -5.174363
  227       -5.157826
  228       -5.116715
  229       -5.090775
  230       -5.039118
  231       -5.005999
  232       -4.965072
  233       -4.955837
  234       -4.948017
  235       -4.903865
  236       -4.863743
  237       -4.823347
  238       -4.777589
  239       -4.758815
  240       -4.722848
  241       -4.700647
  242       -4.649842
  243       -4.627523
  244       -4.599091
  245       -4.575264
  246       -4.559572
  247       -4.538251
  248       -4.493235
  249       -4.478471
  250       -4.432030
  251       -4.418421
  252       -4.404987
  253       -4.358218
  254       -4.340643
  255       -4.330846
  256       -4.297790
  257       -4.290673
  258       -4.244199
  259       -4.231673
  260       -4.223029
  261       -4.210897
  262       -4.149312
  263       -4.144310
  264       -4.105423
  265       -4.073757
  266       -4.055556
  267       -4.042216
  268       -4.018760
  269       -3.975364
  270       -3.952335
  271       -3.919235
  272       -3.915146
  273       -3.884814
  274       -3.879798
  275       -3.841487
  276       -3.816712
  277       -3.793271
  278       -3.765269
  279       -3.758369
  280       -3.744797
  281       -3.690025
  282       -3.674642
  283       -3.645505
  284       -3.628347
  285       -3.616687
  286       -3.556304
  287       -3.550375
  288       -3.520256
  289       -3.508118
  290       -3.493367
  291       -3.467323
  292       -3.459586
  293       -3.444851
  294       -3.430782
  295       -3.404823
  296       -3.389178
  297       -3.364841
  298       -3.338293
  299       -3.312656
  300       -3.274696
  301       -3.267787
  302       -3.250515
  303       -3.237840
  304       -3.200850
  305       -3.188708
  306       -3.175789
  307       -3.161965
  308       -3.146944
  309       -3.127606
  310       -3.113725
  311       -3.089820
  312       -3.060451
  313       -3.045947
  314       -3.040651
  315       -2.995664
  316       -2.983340
  317       -2.969542
  318       -2.952331
  319       -2.928628
  320       -2.895777
  321       -2.884137
  322       -2.868587
  323       -2.849731
  324       -2.826592
  325       -2.803749
  326       -2.793737
  327       -2.764296
  328       -2.754716
  329       -2.718516
  330       -2.718097
  331       -2.696824
  332       -2.660861
  333       -2.642301
  334       -2.621215
  335       -2.596940
  336       -2.570442
  337       -2.556146
  338       -2.531973
  339       -2.516575
  340       -2.500755
  341       -2.471144
  342       -2.464983
  343       -2.455958
  344       -2.426041
  345       -2.420338
  346       -2.393134
  347       -2.370291
  348       -2.346844
  349       -2.334203
  350       -2.303657
  351       -2.293636
  352       -2.282069
  353       -2.269637
  354       -2.251271
  355       -2.233710
  356       -2.204072
  357       -2.183979
  358       -2.177901
  359       -2.164601
  360       -2.145393
  361       -2.142291
  362       -2.116197
  363       -2.105825
  364       -2.086959
  365       -2.086259
  366       -2.064762
  367       -2.043944
  368       -2.038412
  369       -2.024083
  370       -2.010562
  371       -1.991627
  372       -1.973797
  373       -1.957508
  374       -1.952597
  375       -1.929687
  376       -1.908836
  377       -1.875748
  378       -1.865887
  379       -1.847160
  380       -1.835474
  381       -1.816418
  382       -1.810209
  383       -1.804839
  384       -1.799190
  385       -1.782679
  386       -1.768639
  387       -1.738626
  388       -1.729017
  389       -1.721271
  390       -1.707807
  391       -1.691656
  392       -1.690321
  393       -1.656945
  394       -1.653175
  395       -1.636726
  396       -1.625924
  397       -1.618435
  398       -1.601977
  399       -1.591836
  400       -1.560840
  401       -1.557942
  402       -1.547904
  403       -1.532273
  404       -1.525544
  405       -1.519125
  406       -1.494899
  407       -1.480223
  408       -1.468592
  409       -1.438865
  410       -1.430915
  411       -1.409951
  412       -1.399695
  413       -1.392746
  414       -1.383338
  415       -1.374943
  416       -1.359517
  417       -1.339343
  418       -1.326696
  419       -1.321791
  420       -1.308247
  421       -1.284744
  422       -1.271929
  423       -1.251190
  424       -1.243201
  425       -1.235576
  426       -1.213259
  427       -1.205182
  428       -1.202397
  429       -1.169920
  430       -1.155965
  431       -1.152211
  432       -1.125925
  433       -1.120545
  434       -1.120279
  435       -1.111681
  436       -1.098155
  437       -1.079771
  438       -1.067850
  439       -1.059087
  440       -1.050891
  441       -1.027556
  442       -1.019466
  443       -1.016834
  444       -1.000673
  445       -0.983281
  446       -0.969347
  447       -0.950124
  448       -0.942737
  449       -0.924565
  450       -0.912086
  451       -0.900668
  452       -0.890117
  453       -0.881752
  454       -0.872580
  455       -0.852468
  456       -0.842152
  457       -0.820879
  458       -0.815853
  459       -0.801976
  460       -0.784916
  461       -0.764996
  462       -0.745023
  463       -0.729333
  464       -0.728293
  465       -0.716256
  466       -0.712319
  467       -0.689329
  468       -0.676124
  469       -0.647936
  470       -0.644706
  471       -0.623982
  472       -0.621778
  473       -0.599045
  474       -0.585240
  475       -0.578771
  476       -0.564551
  477       -0.550584
  478       -0.526599
  479       -0.520451
  480       -0.508835
  481       -0.490957
  482       -0.476592
  483       -0.464124
  484       -0.454638
  485       -0.433986
  486       -0.425490
  487       -0.412159
  488       -0.393321
  489       -0.385326
  490       -0.366238
  491       -0.347770
  492       -0.344086
  493       -0.335074
  494       -0.329682
  495       -0.321920
  496       -0.297548
  497       -0.286846
  498       -0.283434
  499       -0.269119
  500       -0.258082
  501       -0.240724
  502       -0.237451
  503       -0.223888
  504       -0.210453
  505       -0.200936
  506       -0.176643
  507       -0.168288
  508       -0.150480
  509       -0.145012
  510       -0.137308
  511       -0.128511
  512       -0.112748
  513       -0.106230
  514       -0.104272
  515       -0.093976
  516       -0.077994
  517       -0.056915
  518       -0.048597
  519       -0.022274
  520       -0.015106
  521       -0.007366
  522        0.006164
  523        0.007180
  524        0.017827
  525        0.030170
  526        0.045906
  527        0.056824
  528        0.072799
  529        0.084921
  530        0.089978
  531        0.107994
  532        0.118399
  533        0.129033
  534        0.146065
  535        0.155933
  536        0.167146
  537        0.175986
  538        0.181853
  539        0.191064
  540        0.206944
  541        0.223357
  542        0.244861
  543        0.246918
  544        0.258546
  545        0.279479
  546        0.303399
  547        0.305744
  548        0.335805
  549        0.341007
  550        0.358366
  551        0.361868
  552        0.389837
  553        0.392714
  554        0.422652
  555        0.429041
  556        0.440701
  557        0.469218
  558        0.486767
  559        0.492965
  560        0.497388
  561        0.509852
  562        0.529011
  563        0.543978
  564        0.549828
  565        0.583833
  566        0.596712
  567        0.609575
  568        0.624038
  569        0.635040
  570        0.636432
  571        0.679937
  572        0.698653
  573        0.712528
  574        0.730412
  575        0.737848
  576        0.755318
  577        0.780227
  578        0.784396
  579        0.815020
  580        0.823945
  581        0.852813
  582        0.868262
  583        0.879215
  584        0.900645
  585        0.931524
  586        0.943489
  587        0.957455
  588        0.972505
  589        0.989693
  590        1.009396
  591        1.018377
  592        1.031114
  593        1.042148
  594        1.057677
  595        1.081833
  596        1.087311
  597        1.097968
  598        1.128278
  599        1.147268
  600        1.158799
  601        1.166001
  602        1.180236
  603        1.191311
  604        1.214187
  605        1.231546
  606        1.262720
  607        1.268648
  608        1.298632
  609        1.315383
  610        1.330863
  611        1.349562
  612        1.362327
  613        1.371731
  614        1.390126
  615        1.408923
  616        1.422900
  617        1.423727
  618        1.448843
  619        1.459234
  620        1.490970
  621        1.511623
  622        1.522264
  623        1.584988
  624        1.613185
  625        1.619600
  626        1.656446
  627        1.701385
  628        1.732357
  629        1.778226
  630        1.792813
  631        1.802438
  632        1.834743
  633        1.863471
  634        1.872284
  635        1.900365
  636        1.941795
  637        1.998327
  638        2.046453
  639        2.055252
  640        2.068798
  641        2.091683
  642        2.111509
  643        2.228616
  644        2.427655
  645        2.448735
  646        2.532632
  647        2.787671
  648        2.901339
  649        4.193310
  650        4.520631
  651        4.718913
  652        4.878087
  653        4.920909
  654        5.215161
  655        5.294541
  656        5.362715
  657        5.456230
  658        5.516945
  659        5.647770
  660        5.733058
  661        5.811138
  662        5.901743
  663        6.005828
  664        6.047740
  665        6.107903
  666        6.139921
  667        6.284607
  668        6.315210
  669        6.505730
  670        6.521556
  671        6.616973
  672        6.675604
  673        6.686301
  674        6.718094
  675        6.760785
  676        6.807838
  677        6.849986
  678        6.949272
  679        6.968635
  680        7.009221
  681        7.043490
  682        7.072465
  683        7.195449
  684        7.274783
  685        7.337804
  686        7.359774
  687        7.425233
  688        7.525855
  689        7.551745
  690        7.595153
  691        7.611540
  692        7.681853
  693        7.736592
  694        7.758395
  695        7.838727
  696        7.863213
  697        7.869135
  698        7.911222
  699        7.978443
  700        8.014154
  701        8.052364
  702        8.108474
  703        8.127562
  704        8.191560
  705        8.208258
  706        8.252039
  707        8.261309
  708        8.295454
  709        8.351014
  710        8.359860
  711        8.380509
  712        8.381720
  713        8.429082
  714        8.445072
  715        8.508530
  716        8.526355
  717        8.570360
  718        8.574414
  719        8.630778
  720        8.642584
  721        8.657239
  722        8.690632
  723        8.728938
  724        8.762562
  725        8.773415
  726        8.776733
  727        8.827189
  728        8.836926
  729        8.869816
  730        8.920456
  731        8.961594
  732        8.975266
  733        8.989873
  734        9.001337
  735        9.037407
  736        9.062104
  737        9.107108
  738        9.118738
  739        9.130546
  740        9.160395
  741        9.204345
  742        9.220978
  743        9.252521
  744        9.262762
  745        9.320452
  746        9.346164
  747        9.364709
  748        9.385291
  749        9.399312
  750        9.422263
  751        9.442383
  752        9.464394
  753        9.496886
  754        9.544722
  755        9.561181
  756        9.580035
  757        9.614824
  758        9.628500
  759        9.657862
  760        9.666688
  761        9.683222
  762        9.722271
  763        9.740380
  764        9.771884
  765        9.798609
  766        9.827351
  767        9.853572
  768        9.872534
  769        9.909952
  770        9.937231
  771        9.942430
  772        9.978168
  773       10.015574
  774       10.039569
  775       10.078754
  776       10.103270
  777       10.124058
  778       10.142210
  779       10.176619
  780       10.200584
  781       10.222301
  782       10.226052
  783       10.275929
  784       10.364811
