 243 243   0   0
  0.1311381E+02  0.1499190E-08  0.1499190E-08  0.1637160E-08  0.5000000E-15
  1.000000000000000E-004
  CAR 
 (Si O2)81  (P1) ~ Ciellie_MCM41 (MD     
     12.81124314    -20.33090280  301      1.11482747      1.00000000
    -20.331  0.0000E+00  0.0000E+00
    -20.220  0.0000E+00  0.0000E+00
    -20.110  0.0000E+00  0.0000E+00
    -19.999  0.0000E+00  0.0000E+00
    -19.889  0.0000E+00  0.0000E+00
    -19.779  0.0000E+00  0.0000E+00
    -19.668  0.0000E+00  0.0000E+00
    -19.558  0.0000E+00  0.0000E+00
    -19.447  0.0000E+00  0.0000E+00
    -19.337  0.0000E+00  0.0000E+00
    -19.226  0.0000E+00  0.0000E+00
    -19.116  0.8790E-17  0.9710E-18
    -19.005  0.6053E-07  0.6687E-08
    -18.895  0.2644E-01  0.2921E-02
    -18.784  0.6398E+01  0.7097E+00
    -18.674  0.3170E+02  0.4212E+01
    -18.563  0.5354E+02  0.1013E+02
    -18.453  0.7970E+02  0.1893E+02
    -18.342  0.1562E+03  0.3619E+02
    -18.232  0.1603E+03  0.5390E+02
    -18.121  0.3073E+02  0.5729E+02
    -18.011  0.4195E+02  0.6193E+02
    -17.900  0.1154E+03  0.7467E+02
    -17.790  0.1799E+03  0.9455E+02
    -17.680  0.6472E+02  0.1017E+03
    -17.569  0.3158E+02  0.1052E+03
    -17.459  0.2544E+02  0.1080E+03
    -17.348  0.6534E+02  0.1152E+03
    -17.238  0.1989E+03  0.1372E+03
    -17.127  0.9251E+02  0.1474E+03
    -17.017  0.5125E+02  0.1531E+03
    -16.906  0.3595E+02  0.1570E+03
    -16.796  0.2516E+02  0.1598E+03
    -16.685  0.2032E+03  0.1823E+03
    -16.575  0.1231E+04  0.3183E+03
    -16.464  0.5145E+02  0.3240E+03
    -16.354  0.1472E-02  0.3240E+03
    -16.243  0.8910E-11  0.3240E+03
    -16.133  0.0000E+00  0.3240E+03
    -16.022  0.0000E+00  0.3240E+03
    -15.912  0.0000E+00  0.3240E+03
    -15.801  0.0000E+00  0.3240E+03
    -15.691  0.0000E+00  0.3240E+03
    -15.581  0.0000E+00  0.3240E+03
    -15.470  0.0000E+00  0.3240E+03
    -15.360  0.0000E+00  0.3240E+03
    -15.249  0.0000E+00  0.3240E+03
    -15.139  0.0000E+00  0.3240E+03
    -15.028  0.0000E+00  0.3240E+03
    -14.918  0.0000E+00  0.3240E+03
    -14.807  0.0000E+00  0.3240E+03
    -14.697  0.0000E+00  0.3240E+03
    -14.586  0.0000E+00  0.3240E+03
    -14.476  0.0000E+00  0.3240E+03
    -14.365  0.0000E+00  0.3240E+03
    -14.255  0.0000E+00  0.3240E+03
    -14.144  0.0000E+00  0.3240E+03
    -14.034  0.0000E+00  0.3240E+03
    -13.923  0.0000E+00  0.3240E+03
    -13.813  0.0000E+00  0.3240E+03
    -13.702  0.0000E+00  0.3240E+03
    -13.592  0.0000E+00  0.3240E+03
    -13.482  0.0000E+00  0.3240E+03
    -13.371  0.0000E+00  0.3240E+03
    -13.261  0.0000E+00  0.3240E+03
    -13.150  0.0000E+00  0.3240E+03
    -13.040  0.0000E+00  0.3240E+03
    -12.929  0.0000E+00  0.3240E+03
    -12.819  0.0000E+00  0.3240E+03
    -12.708  0.0000E+00  0.3240E+03
    -12.598  0.0000E+00  0.3240E+03
    -12.487  0.0000E+00  0.3240E+03
    -12.377  0.0000E+00  0.3240E+03
    -12.266  0.0000E+00  0.3240E+03
    -12.156  0.0000E+00  0.3240E+03
    -12.045  0.0000E+00  0.3240E+03
    -11.935  0.0000E+00  0.3240E+03
    -11.824  0.0000E+00  0.3240E+03
    -11.714  0.0000E+00  0.3240E+03
    -11.603  0.0000E+00  0.3240E+03
    -11.493  0.0000E+00  0.3240E+03
    -11.383  0.0000E+00  0.3240E+03
    -11.272  0.0000E+00  0.3240E+03
    -11.162  0.0000E+00  0.3240E+03
    -11.051  0.0000E+00  0.3240E+03
    -10.941  0.0000E+00  0.3240E+03
    -10.830  0.0000E+00  0.3240E+03
    -10.720  0.0000E+00  0.3240E+03
    -10.609  0.0000E+00  0.3240E+03
    -10.499  0.0000E+00  0.3240E+03
    -10.388  0.0000E+00  0.3240E+03
    -10.278  0.0000E+00  0.3240E+03
    -10.167  0.0000E+00  0.3240E+03
    -10.057  0.0000E+00  0.3240E+03
     -9.946  0.0000E+00  0.3240E+03
     -9.836  0.0000E+00  0.3240E+03
     -9.725  0.0000E+00  0.3240E+03
     -9.615  0.0000E+00  0.3240E+03
     -9.504  0.0000E+00  0.3240E+03
     -9.394  0.0000E+00  0.3240E+03
     -9.284  0.1307E-12  0.3240E+03
     -9.173  0.8992E-05  0.3240E+03
     -9.063  0.1147E+00  0.3240E+03
     -8.952  0.3172E+01  0.3244E+03
     -8.842  0.7755E+01  0.3252E+03
     -8.731  0.1114E+02  0.3265E+03
     -8.621  0.1436E+02  0.3280E+03
     -8.510  0.1778E+02  0.3300E+03
     -8.400  0.2168E+02  0.3324E+03
     -8.289  0.2654E+02  0.3353E+03
     -8.179  0.3348E+02  0.3390E+03
     -8.068  0.5452E+02  0.3450E+03
     -7.958  0.1534E+03  0.3620E+03
     -7.847  0.8598E+02  0.3715E+03
     -7.737  0.3514E+02  0.3754E+03
     -7.626  0.1728E+02  0.3773E+03
     -7.516  0.1185E+02  0.3786E+03
     -7.405  0.1083E+02  0.3798E+03
     -7.295  0.1240E+02  0.3812E+03
     -7.185  0.1629E+02  0.3830E+03
     -7.074  0.2319E+02  0.3855E+03
     -6.964  0.3612E+02  0.3895E+03
     -6.853  0.7483E+02  0.3978E+03
     -6.743  0.1120E+03  0.4101E+03
     -6.632  0.7267E+02  0.4182E+03
     -6.522  0.4228E+02  0.4228E+03
     -6.411  0.2838E+02  0.4260E+03
     -6.301  0.1947E+02  0.4281E+03
     -6.190  0.1452E+02  0.4297E+03
     -6.080  0.3358E+02  0.4334E+03
     -5.969  0.5661E+02  0.4397E+03
     -5.859  0.6857E+02  0.4473E+03
     -5.748  0.5933E+02  0.4538E+03
     -5.638  0.5340E+02  0.4597E+03
     -5.527  0.4959E+02  0.4652E+03
     -5.417  0.4627E+02  0.4703E+03
     -5.306  0.4230E+02  0.4750E+03
     -5.196  0.3652E+02  0.4790E+03
     -5.086  0.5703E+02  0.4853E+03
     -4.975  0.1878E+03  0.5061E+03
     -4.865  0.2278E+03  0.5312E+03
     -4.754  0.1616E+03  0.5491E+03
     -4.644  0.1369E+03  0.5642E+03
     -4.533  0.1367E+03  0.5793E+03
     -4.423  0.1229E+03  0.5929E+03
     -4.312  0.9583E+02  0.6035E+03
     -4.202  0.1545E+03  0.6206E+03
     -4.091  0.1130E+03  0.6331E+03
     -3.981  0.8535E+02  0.6425E+03
     -3.870  0.4608E+02  0.6476E+03
     -3.760  0.3879E+01  0.6480E+03
     -3.649  0.3129E-02  0.6480E+03
     -3.539  0.9638E-09  0.6480E+03
     -3.428  0.0000E+00  0.6480E+03
     -3.318  0.0000E+00  0.6480E+03
     -3.207  0.0000E+00  0.6480E+03
     -3.097  0.0000E+00  0.6480E+03
     -2.987  0.0000E+00  0.6480E+03
     -2.876  0.0000E+00  0.6480E+03
     -2.766  0.1159E-07  0.6480E+03
     -2.655  0.3110E-01  0.6480E+03
     -2.545  0.3246E+02  0.6516E+03
     -2.434  0.2780E+03  0.6823E+03
     -2.324  0.2495E+03  0.7099E+03
     -2.213  0.2185E+03  0.7340E+03
     -2.103  0.1673E+03  0.7525E+03
     -1.992  0.1295E+03  0.7668E+03
     -1.882  0.1929E+03  0.7881E+03
     -1.771  0.1944E+03  0.8096E+03
     -1.661  0.1546E+03  0.8267E+03
     -1.550  0.2168E+03  0.8506E+03
     -1.440  0.2958E+03  0.8833E+03
     -1.329  0.2814E+03  0.9144E+03
     -1.219  0.1192E+03  0.9275E+03
     -1.108  0.1204E+03  0.9408E+03
     -0.998  0.2334E+03  0.9666E+03
     -0.888  0.3223E+03  0.1002E+04
     -0.777  0.1670E+03  0.1021E+04
     -0.667  0.1409E+03  0.1036E+04
     -0.556  0.1833E+03  0.1056E+04
     -0.446  0.1745E+03  0.1076E+04
     -0.335  0.1179E+03  0.1089E+04
     -0.225  0.1541E+03  0.1106E+04
     -0.114  0.2053E+03  0.1128E+04
     -0.004  0.1795E+03  0.1148E+04
      0.107  0.1827E+03  0.1169E+04
      0.217  0.1633E+03  0.1187E+04
      0.328  0.1783E+03  0.1206E+04
      0.438  0.2089E+03  0.1229E+04
      0.549  0.1726E+03  0.1248E+04
      0.659  0.1454E+03  0.1264E+04
      0.770  0.2302E+03  0.1290E+04
      0.880  0.5503E+02  0.1296E+04
      0.991  0.2278E+00  0.1296E+04
      1.101  0.7742E-06  0.1296E+04
      1.211  0.1919E-15  0.1296E+04
      1.322  0.0000E+00  0.1296E+04
      1.432  0.0000E+00  0.1296E+04
      1.543  0.0000E+00  0.1296E+04
      1.653  0.0000E+00  0.1296E+04
      1.764  0.0000E+00  0.1296E+04
      1.874  0.0000E+00  0.1296E+04
      1.985  0.0000E+00  0.1296E+04
      2.095  0.0000E+00  0.1296E+04
      2.206  0.0000E+00  0.1296E+04
      2.316  0.0000E+00  0.1296E+04
      2.427  0.0000E+00  0.1296E+04
      2.537  0.0000E+00  0.1296E+04
      2.648  0.0000E+00  0.1296E+04
      2.758  0.0000E+00  0.1296E+04
      2.869  0.0000E+00  0.1296E+04
      2.979  0.0000E+00  0.1296E+04
      3.090  0.0000E+00  0.1296E+04
      3.200  0.0000E+00  0.1296E+04
      3.310  0.0000E+00  0.1296E+04
      3.421  0.0000E+00  0.1296E+04
      3.531  0.0000E+00  0.1296E+04
      3.642  0.0000E+00  0.1296E+04
      3.752  0.0000E+00  0.1296E+04
      3.863  0.0000E+00  0.1296E+04
      3.973  0.0000E+00  0.1296E+04
      4.084  0.0000E+00  0.1296E+04
      4.194  0.0000E+00  0.1296E+04
      4.305  0.0000E+00  0.1296E+04
      4.415  0.0000E+00  0.1296E+04
      4.526  0.0000E+00  0.1296E+04
      4.636  0.0000E+00  0.1296E+04
      4.747  0.0000E+00  0.1296E+04
      4.857  0.0000E+00  0.1296E+04
      4.968  0.0000E+00  0.1296E+04
      5.078  0.0000E+00  0.1296E+04
      5.189  0.0000E+00  0.1296E+04
      5.299  0.0000E+00  0.1296E+04
      5.409  0.0000E+00  0.1296E+04
      5.520  0.0000E+00  0.1296E+04
      5.630  0.0000E+00  0.1296E+04
      5.741  0.0000E+00  0.1296E+04
      5.851  0.0000E+00  0.1296E+04
      5.962  0.0000E+00  0.1296E+04
      6.072  0.0000E+00  0.1296E+04
      6.183  0.0000E+00  0.1296E+04
      6.293  0.0000E+00  0.1296E+04
      6.404  0.0000E+00  0.1296E+04
      6.514  0.2071E-11  0.1296E+04
      6.625  0.3226E-04  0.1296E+04
      6.735  0.1186E+00  0.1296E+04
      6.846  0.1753E+01  0.1296E+04
      6.956  0.3574E+01  0.1297E+04
      7.067  0.4879E+01  0.1297E+04
      7.177  0.6031E+01  0.1298E+04
      7.288  0.7130E+01  0.1299E+04
      7.398  0.8215E+01  0.1300E+04
      7.508  0.9308E+01  0.1301E+04
      7.619  0.1044E+02  0.1302E+04
      7.729  0.1156E+02  0.1303E+04
      7.840  0.1271E+02  0.1304E+04
      7.950  0.1393E+02  0.1306E+04
      8.061  0.1525E+02  0.1308E+04
      8.171  0.1672E+02  0.1309E+04
      8.282  0.1826E+02  0.1311E+04
      8.392  0.1984E+02  0.1314E+04
      8.503  0.2156E+02  0.1316E+04
      8.613  0.2369E+02  0.1319E+04
      8.724  0.2651E+02  0.1322E+04
      8.834  0.3105E+02  0.1325E+04
      8.945  0.3386E+02  0.1329E+04
      9.055  0.3331E+02  0.1332E+04
      9.166  0.3261E+02  0.1336E+04
      9.276  0.3187E+02  0.1340E+04
      9.387  0.3104E+02  0.1343E+04
      9.497  0.3148E+02  0.1346E+04
      9.608  0.3514E+02  0.1350E+04
      9.718  0.4454E+02  0.1355E+04
      9.828  0.7510E+02  0.1364E+04
      9.939  0.1211E+03  0.1377E+04
     10.049  0.1651E+03  0.1395E+04
     10.160  0.1389E+03  0.1411E+04
     10.270  0.1214E+03  0.1424E+04
     10.381  0.1308E+03  0.1438E+04
     10.491  0.1711E+03  0.1457E+04
     10.602  0.2505E+03  0.1485E+04
     10.712  0.2093E+03  0.1508E+04
     10.823  0.1583E+03  0.1526E+04
     10.933  0.1104E+03  0.1538E+04
     11.044  0.1073E+03  0.1550E+04
     11.154  0.1004E+03  0.1561E+04
     11.265  0.5790E+02  0.1567E+04
     11.375  0.8141E+01  0.1568E+04
     11.486  0.1942E-01  0.1568E+04
     11.596  0.3566E-07  0.1568E+04
     11.707  0.0000E+00  0.1568E+04
     11.817  0.0000E+00  0.1568E+04
     11.927  0.0000E+00  0.1568E+04
     12.038  0.0000E+00  0.1568E+04
     12.148  0.0000E+00  0.1568E+04
     12.259  0.0000E+00  0.1568E+04
     12.369  0.0000E+00  0.1568E+04
     12.480  0.0000E+00  0.1568E+04
     12.590  0.0000E+00  0.1568E+04
     12.701  0.0000E+00  0.1568E+04
     12.811  0.0000E+00  0.1568E+04
