  243  243    1    1
  0.1311381E+02  0.1499190E-08  0.1499190E-08  0.1637160E-08  0.5000000E-15
  1.000000000000000E-004
  CAR 
 (Si O2)81  (P1) ~ Ciellie_MCM41 (MD     
   1296    192    784
 
  0.0000000E+00  0.0000000E+00  0.0000000E+00  0.3644315E-03
    1      -18.824442
    2      -18.615616
    3      -18.615614
    4      -18.536830
    5      -18.536822
    6      -18.536772
    7      -18.536654
    8      -18.536603
    9      -18.536595
   10      -18.407095
   11      -18.407095
   12      -18.407051
   13      -18.407049
   14      -18.407016
   15      -18.407014
   16      -18.406925
   17      -18.406923
   18      -18.406890
   19      -18.406888
   20      -18.406842
   21      -18.406841
   22      -18.279491
   23      -18.279489
   24      -18.279488
   25      -18.279486
   26      -18.116351
   27      -18.116349
   28      -18.116317
   29      -18.116314
   30      -18.045034
   31      -18.045034
   32      -17.949327
   33      -17.949326
   34      -17.949275
   35      -17.949275
   36      -17.949204
   37      -17.949202
   38      -17.949193
   39      -17.949191
   40      -17.949123
   41      -17.949122
   42      -17.949069
   43      -17.949068
   44      -17.799750
   45      -17.799750
   46      -17.799747
   47      -17.799747
   48      -17.672609
   49      -17.672605
   50      -17.672592
   51      -17.672335
   52      -17.672331
   53      -17.672320
   54      -17.457541
   55      -17.457540
   56      -17.457538
   57      -17.457537
   58      -17.313549
   59      -17.313545
   60      -17.288649
   61      -17.288603
   62      -17.275991
   63      -17.275879
   64      -17.275855
   65      -17.275764
   66      -17.275744
   67      -17.275635
   68      -17.136334
   69      -17.136334
   70      -17.136333
   71      -17.136332
   72      -17.136276
   73      -17.136274
   74      -17.136271
   75      -17.136269
   76      -17.136214
   77      -17.136214
   78      -17.136213
   79      -17.136213
   80      -16.692160
   81      -16.692158
   82      -16.666313
   83      -16.666311
   84      -16.666310
   85      -16.666308
   86      -16.658516
   87      -16.654973
   88      -16.654972
   89      -16.654958
   90      -16.654957
   91      -16.653511
   92      -16.653510
   93      -16.653464
   94      -16.653462
   95      -16.653384
   96      -16.653381
   97      -16.653322
   98      -16.653320
   99      -16.653239
  100      -16.653238
  101      -16.653177
  102      -16.653175
  103      -16.651899
  104      -16.651895
  105      -16.651893
  106      -16.651832
  107      -16.651829
  108      -16.651825
  109      -16.647263
  110      -16.647259
  111      -16.646838
  112      -16.646836
  113      -16.645735
  114      -16.645733
  115      -16.645710
  116      -16.645707
  117      -16.645696
  118      -16.645694
  119      -16.645660
  120      -16.645658
  121      -16.645638
  122      -16.645634
  123      -16.645586
  124      -16.645582
  125      -16.644833
  126      -16.644828
  127      -16.644791
  128      -16.644697
  129      -16.644654
  130      -16.644642
  131      -16.639537
  132      -16.639535
  133      -16.639494
  134      -16.639491
  135      -16.638872
  136      -16.638871
  137      -16.638868
  138      -16.638868
  139      -16.635632
  140      -16.635519
  141      -16.635491
  142      -16.635401
  143      -16.635377
  144      -16.635256
  145      -16.627613
  146      -16.627612
  147      -16.626812
  148      -16.626812
  149      -16.626719
  150      -16.626718
  151      -16.626703
  152      -16.626701
  153      -16.626600
  154      -16.626598
  155      -16.626586
  156      -16.626585
  157      -16.626475
  158      -16.626475
  159      -16.621866
  160      -16.621863
  161      -16.620449
  162      -16.620396
  163       -8.885782
  164       -8.885779
  165       -8.192273
  166       -8.192273
  167       -8.192243
  168       -8.192242
  169       -8.192207
  170       -8.192204
  171       -8.192180
  172       -8.192178
  173       -8.192141
  174       -8.192140
  175       -8.192112
  176       -8.192111
  177       -8.077991
  178       -8.077990
  179       -7.956825
  180       -7.956823
  181       -7.956800
  182       -7.956750
  183       -7.956731
  184       -7.956720
  185       -7.826446
  186       -7.826418
  187       -7.673561
  188       -7.673560
  189       -7.673559
  190       -7.673558
  191       -7.181720
  192       -7.181719
  193       -7.181707
  194       -7.181705
  195       -7.181700
  196       -7.181696
  197       -6.765242
  198       -6.765242
  199       -6.765239
  200       -6.765239
  201       -6.656571
  202       -6.656571
  203       -6.656565
  204       -6.656564
  205       -6.656525
  206       -6.656524
  207       -6.656482
  208       -6.656482
  209       -6.656441
  210       -6.656440
  211       -6.656440
  212       -6.656440
  213       -6.330852
  214       -6.330852
  215       -6.159308
  216       -6.159304
  217       -6.159274
  218       -6.159270
  219       -6.156280
  220       -6.156277
  221       -6.156277
  222       -6.156274
  223       -5.718679
  224       -5.718678
  225       -5.718671
  226       -5.718670
  227       -5.718628
  228       -5.718628
  229       -5.718627
  230       -5.718626
  231       -5.718594
  232       -5.718593
  233       -5.718588
  234       -5.718586
  235       -5.149680
  236       -5.149679
  237       -5.145491
  238       -5.145489
  239       -5.102143
  240       -5.102143
  241       -5.055118
  242       -5.053416
  243       -5.053416
  244       -5.053412
  245       -5.053395
  246       -5.053394
  247       -5.053392
  248       -5.035675
  249       -5.035647
  250       -5.035605
  251       -5.035578
  252       -5.035568
  253       -5.035498
  254       -4.937722
  255       -4.937721
  256       -4.937692
  257       -4.937691
  258       -4.937688
  259       -4.937686
  260       -4.937643
  261       -4.937642
  262       -4.937641
  263       -4.937640
  264       -4.937603
  265       -4.937601
  266       -4.869826
  267       -4.869802
  268       -4.869791
  269       -4.869757
  270       -4.869754
  271       -4.869740
  272       -4.842333
  273       -4.842331
  274       -4.842308
  275       -4.842306
  276       -4.822925
  277       -4.822925
  278       -4.822925
  279       -4.822925
  280       -4.725682
  281       -4.633076
  282       -4.633070
  283       -4.509570
  284       -4.509570
  285       -4.509560
  286       -4.509560
  287       -4.509525
  288       -4.509524
  289       -4.509523
  290       -4.509522
  291       -4.509484
  292       -4.509484
  293       -4.509472
  294       -4.509472
  295       -4.443739
  296       -4.443736
  297       -4.443734
  298       -4.443732
  299       -4.269725
  300       -4.269724
  301       -4.269724
  302       -4.269723
  303       -4.253436
  304       -4.253436
  305       -4.253402
  306       -4.253401
  307       -4.253396
  308       -4.253393
  309       -4.253391
  310       -4.253389
  311       -4.253385
  312       -4.253384
  313       -4.253345
  314       -4.253345
  315       -4.106086
  316       -4.106067
  317       -4.106056
  318       -4.106043
  319       -4.106034
  320       -4.106024
  321       -4.003771
  322       -4.003768
  323       -3.855231
  324       -3.855228
  325       -2.538068
  326       -2.538066
  327       -2.538065
  328       -2.538063
  329       -2.481727
  330       -2.481727
  331       -2.481710
  332       -2.481710
  333       -2.481650
  334       -2.481650
  335       -2.481645
  336       -2.481645
  337       -2.481585
  338       -2.481584
  339       -2.481568
  340       -2.481568
  341       -2.456135
  342       -2.456119
  343       -2.456118
  344       -2.456042
  345       -2.456038
  346       -2.456025
  347       -2.322548
  348       -2.322547
  349       -2.322427
  350       -2.322426
  351       -2.283484
  352       -2.283484
  353       -2.283470
  354       -2.283469
  355       -2.283425
  356       -2.283425
  357       -2.283367
  358       -2.283367
  359       -2.283328
  360       -2.283327
  361       -2.283313
  362       -2.283313
  363       -2.223856
  364       -2.216317
  365       -2.216317
  366       -2.216316
  367       -2.216316
  368       -2.185525
  369       -2.185504
  370       -2.185491
  371       -2.185414
  372       -2.185387
  373       -2.185367
  374       -2.180932
  375       -2.180931
  376       -2.179858
  377       -2.179845
  378       -2.147996
  379       -2.147996
  380       -2.147994
  381       -2.147994
  382       -2.020180
  383       -2.020177
  384       -2.014381
  385       -2.014380
  386       -1.892963
  387       -1.892960
  388       -1.889358
  389       -1.889292
  390       -1.889266
  391       -1.889266
  392       -1.889247
  393       -1.889178
  394       -1.832816
  395       -1.832815
  396       -1.832785
  397       -1.832783
  398       -1.832762
  399       -1.832760
  400       -1.832728
  401       -1.832726
  402       -1.832683
  403       -1.832681
  404       -1.832623
  405       -1.832621
  406       -1.829799
  407       -1.680081
  408       -1.680052
  409       -1.679908
  410       -1.679882
  411       -1.679838
  412       -1.679782
  413       -1.648134
  414       -1.648133
  415       -1.648109
  416       -1.648109
  417       -1.648088
  418       -1.648087
  419       -1.648082
  420       -1.648082
  421       -1.648053
  422       -1.648053
  423       -1.648038
  424       -1.648038
  425       -1.555955
  426       -1.555954
  427       -1.497235
  428       -1.497234
  429       -1.497176
  430       -1.497175
  431       -1.497173
  432       -1.497173
  433       -1.497164
  434       -1.497163
  435       -1.497163
  436       -1.497163
  437       -1.497110
  438       -1.497110
  439       -1.484672
  440       -1.484672
  441       -1.406579
  442       -1.406577
  443       -1.373018
  444       -1.373015
  445       -1.373010
  446       -1.373007
  447       -1.371086
  448       -1.371050
  449       -1.370973
  450       -1.370967
  451       -1.370941
  452       -1.370888
  453       -1.334395
  454       -1.334394
  455       -1.334394
  456       -1.334394
  457       -1.310551
  458       -1.310550
  459       -1.310515
  460       -1.310515
  461       -1.275166
  462       -1.275166
  463       -1.275165
  464       -1.275165
  465       -1.223638
  466       -1.223625
  467       -1.223593
  468       -1.223576
  469       -1.223523
  470       -1.223512
  471       -1.148848
  472       -1.148848
  473       -1.120758
  474       -1.120757
  475       -1.044599
  476       -1.044595
  477       -1.041195
  478       -1.041193
  479       -0.982333
  480       -0.982326
  481       -0.982323
  482       -0.982322
  483       -0.982104
  484       -0.982099
  485       -0.981508
  486       -0.973792
  487       -0.973403
  488       -0.929858
  489       -0.929857
  490       -0.929832
  491       -0.929831
  492       -0.929778
  493       -0.929777
  494       -0.929744
  495       -0.929743
  496       -0.929721
  497       -0.929720
  498       -0.929647
  499       -0.929646
  500       -0.866979
  501       -0.866977
  502       -0.866952
  503       -0.866951
  504       -0.866918
  505       -0.866918
  506       -0.866884
  507       -0.866883
  508       -0.866865
  509       -0.866865
  510       -0.866842
  511       -0.866841
  512       -0.695509
  513       -0.695503
  514       -0.695306
  515       -0.695300
  516       -0.656495
  517       -0.656494
  518       -0.656435
  519       -0.656434
  520       -0.656422
  521       -0.656421
  522       -0.656345
  523       -0.656344
  524       -0.656344
  525       -0.656344
  526       -0.656288
  527       -0.656287
  528       -0.631117
  529       -0.631116
  530       -0.631113
  531       -0.631113
  532       -0.445153
  533       -0.445115
  534       -0.445045
  535       -0.444998
  536       -0.444990
  537       -0.444875
  538       -0.377974
  539       -0.377973
  540       -0.377971
  541       -0.377970
  542       -0.326662
  543       -0.326659
  544       -0.282543
  545       -0.282525
  546       -0.282334
  547       -0.282316
  548       -0.282307
  549       -0.282284
  550       -0.275797
  551       -0.275797
  552       -0.275788
  553       -0.275788
  554       -0.225905
  555       -0.225674
  556       -0.138902
  557       -0.138902
  558       -0.138888
  559       -0.138887
  560       -0.138881
  561       -0.138881
  562       -0.138859
  563       -0.138859
  564       -0.138790
  565       -0.138788
  566       -0.138768
  567       -0.138767
  568       -0.069770
  569       -0.069738
  570       -0.069718
  571       -0.069652
  572       -0.069647
  573       -0.069609
  574        0.078615
  575        0.078616
  576        0.078619
  577        0.078620
  578        0.127898
  579        0.127901
  580        0.127911
  581        0.127913
  582        0.128038
  583        0.128041
  584        0.128049
  585        0.128051
  586        0.128084
  587        0.128087
  588        0.128106
  589        0.128109
  590        0.143667
  591        0.143667
  592        0.143673
  593        0.143673
  594        0.249873
  595        0.249874
  596        0.249882
  597        0.249882
  598        0.249903
  599        0.249904
  600        0.249908
  601        0.249908
  602        0.249933
  603        0.249933
  604        0.249941
  605        0.249942
  606        0.311207
  607        0.311213
  608        0.311413
  609        0.311417
  610        0.318719
  611        0.318734
  612        0.415514
  613        0.415515
  614        0.415521
  615        0.415523
  616        0.436921
  617        0.436924
  618        0.460107
  619        0.460107
  620        0.460130
  621        0.460130
  622        0.460133
  623        0.460136
  624        0.612896
  625        0.662084
  626        0.662085
  627        0.662115
  628        0.662116
  629        0.662125
  630        0.662126
  631        0.662155
  632        0.662156
  633        0.662190
  634        0.662191
  635        0.662245
  636        0.662247
  637        0.728084
  638        0.728089
  639        0.728145
  640        0.728160
  641        0.728175
  642        0.728251
  643        0.730293
  644        0.730294
  645        0.752549
  646        0.752557
  647        0.796655
  648        0.796655
  649        6.740175
  650        7.687818
  651        7.687819
  652        8.062477
  653        8.062548
  654        8.062570
  655        8.062674
  656        8.062828
  657        8.062845
  658        8.747817
  659        8.747819
  660        8.747889
  661        8.747891
  662        8.747894
  663        8.747895
  664        8.748006
  665        8.748008
  666        8.748145
  667        8.748147
  668        8.748150
  669        8.748151
  670        9.465054
  671        9.465054
  672        9.551317
  673        9.551320
  674        9.552032
  675        9.552034
  676        9.552754
  677        9.552786
  678        9.873515
  679        9.873515
  680        9.873536
  681        9.873536
  682        9.906608
  683        9.906650
  684        9.906771
  685        9.906828
  686        9.906867
  687        9.906941
  688        9.940638
  689        9.940639
  690        9.940644
  691        9.940645
  692       10.006408
  693       10.006873
  694       10.131454
  695       10.131454
  696       10.131468
  697       10.131469
  698       10.131579
  699       10.131579
  700       10.131580
  701       10.131580
  702       10.131684
  703       10.131685
  704       10.131713
  705       10.131714
  706       10.202427
  707       10.202433
  708       10.302011
  709       10.302574
  710       10.343253
  711       10.343254
  712       10.343275
  713       10.343276
  714       10.343373
  715       10.343374
  716       10.343415
  717       10.343416
  718       10.343534
  719       10.343534
  720       10.343540
  721       10.343541
  722       10.389609
  723       10.389610
  724       10.489660
  725       10.489688
  726       10.489706
  727       10.489745
  728       10.489804
  729       10.489874
  730       10.507941
  731       10.507957
  732       10.542340
  733       10.542346
  734       10.542400
  735       10.542422
  736       10.542664
  737       10.542675
  738       10.542718
  739       10.542722
  740       10.542839
  741       10.542853
  742       10.542938
  743       10.542951
  744       10.570480
  745       10.570495
  746       10.570500
  747       10.570519
  748       10.570535
  749       10.570638
  750       10.623442
  751       10.623446
  752       10.623458
  753       10.623481
  754       10.772602
  755       10.772622
  756       10.772663
  757       10.772698
  758       10.772732
  759       10.772739
  760       10.772762
  761       10.772796
  762       10.772835
  763       10.772871
  764       10.773157
  765       10.774336
  766       10.825787
  767       10.825847
  768       10.826334
  769       10.827815
  770       10.890515
  771       10.890675
  772       10.890904
  773       10.891122
  774       10.891734
  775       10.895820
  776       11.000401
  777       11.003301
  778       11.016570
  779       11.024440
  780       11.064656
  781       11.066421
  782       11.069784
  783       11.077976
  784       11.121363
 
  0.7142857E-01 -0.9257185E-17  0.4488874E-24  0.2186589E-02
    1      -18.822531
    2      -18.614304
    3      -18.614302
    4      -18.571952
    5      -18.553155
    6      -18.553146
    7      -18.517669
    8      -18.517657
    9      -18.501143
   10      -18.428419
   11      -18.428416
   12      -18.416951
   13      -18.416951
   14      -18.416934
   15      -18.416931
   16      -18.396190
   17      -18.396190
   18      -18.396169
   19      -18.396165
   20      -18.387001
   21      -18.386998
   22      -18.280339
   23      -18.280336
   24      -18.280334
   25      -18.280331
   26      -18.153526
   27      -18.153497
   28      -18.079942
   29      -18.079911
   30      -18.044634
   31      -18.044633
   32      -17.962558
   33      -17.962557
   34      -17.955617
   35      -17.955616
   36      -17.955597
   37      -17.955595
   38      -17.941927
   39      -17.941926
   40      -17.941903
   41      -17.941900
   42      -17.935235
   43      -17.935234
   44      -17.802099
   45      -17.802098
   46      -17.802092
   47      -17.802091
   48      -17.716622
   49      -17.695647
   50      -17.695634
   51      -17.651416
   52      -17.651408
   53      -17.628280
   54      -17.453559
   55      -17.453558
   56      -17.453555
   57      -17.453554
   58      -17.313354
   59      -17.313349
   60      -17.291137
   61      -17.288546
   62      -17.276778
   63      -17.276705
   64      -17.276671
   65      -17.275834
   66      -17.275799
   67      -17.275015
   68      -17.179393
   69      -17.179391
   70      -17.159545
   71      -17.159543
   72      -17.159508
   73      -17.159505
   74      -17.115818
   75      -17.115816
   76      -17.115784
   77      -17.115781
   78      -17.092088
   79      -17.092086
   80      -16.696658
   81      -16.696656
   82      -16.665883
   83      -16.665880
   84      -16.665878
   85      -16.665876
   86      -16.658497
   87      -16.655558
   88      -16.655556
   89      -16.654951
   90      -16.654951
   91      -16.654930
   92      -16.654929
   93      -16.654608
   94      -16.654606
   95      -16.654570
   96      -16.654567
   97      -16.652671
   98      -16.652543
   99      -16.652541
  100      -16.652509
  101      -16.652505
  102      -16.652230
  103      -16.652220
  104      -16.651957
  105      -16.651761
  106      -16.651750
  107      -16.651224
  108      -16.651222
  109      -16.647870
  110      -16.647865
  111      -16.647044
  112      -16.647040
  113      -16.646674
  114      -16.646575
  115      -16.646575
  116      -16.646500
  117      -16.646496
  118      -16.645768
  119      -16.645766
  120      -16.645724
  121      -16.645658
  122      -16.645189
  123      -16.645189
  124      -16.645115
  125      -16.645111
  126      -16.644354
  127      -16.644350
  128      -16.644108
  129      -16.644045
  130      -16.643190
  131      -16.640156
  132      -16.640120
  133      -16.639421
  134      -16.639381
  135      -16.638621
  136      -16.638620
  137      -16.638615
  138      -16.638615
  139      -16.636905
  140      -16.636084
  141      -16.636046
  142      -16.634681
  143      -16.634642
  144      -16.633987
  145      -16.628086
  146      -16.628083
  147      -16.627732
  148      -16.627731
  149      -16.627440
  150      -16.627439
  151      -16.627411
  152      -16.627410
  153      -16.626287
  154      -16.626285
  155      -16.626266
  156      -16.626264
  157      -16.625521
  158      -16.625519
  159      -16.622127
  160      -16.622124
  161      -16.620714
  162      -16.620535
  163       -8.881399
  164       -8.881396
  165       -8.267730
  166       -8.267727
  167       -8.227529
  168       -8.227527
  169       -8.227520
  170       -8.227517
  171       -8.152888
  172       -8.152886
  173       -8.152876
  174       -8.152873
  175       -8.118694
  176       -8.118691
  177       -8.076945
  178       -8.076944
  179       -7.966907
  180       -7.963119
  181       -7.963110
  182       -7.952386
  183       -7.952378
  184       -7.945564
  185       -7.827338
  186       -7.822242
  187       -7.678189
  188       -7.678188
  189       -7.678185
  190       -7.678182
  191       -7.249596
  192       -7.211673
  193       -7.211658
  194       -7.144896
  195       -7.144878
  196       -7.116978
  197       -6.765877
  198       -6.765876
  199       -6.765872
  200       -6.765871
  201       -6.695004
  202       -6.695002
  203       -6.675724
  204       -6.675723
  205       -6.675721
  206       -6.675719
  207       -6.637708
  208       -6.637707
  209       -6.637706
  210       -6.637705
  211       -6.618890
  212       -6.618888
  213       -6.333099
  214       -6.333098
  215       -6.254389
  216       -6.254361
  217       -6.150229
  218       -6.150226
  219       -6.150225
  220       -6.150222
  221       -6.064746
  222       -6.064715
  223       -5.748314
  224       -5.748312
  225       -5.737102
  226       -5.737100
  227       -5.737059
  228       -5.737056
  229       -5.705712
  230       -5.705711
  231       -5.705671
  232       -5.705669
  233       -5.685834
  234       -5.685833
  235       -5.174907
  236       -5.174906
  237       -5.147945
  238       -5.147943
  239       -5.100426
  240       -5.100379
  241       -5.098224
  242       -5.072667
  243       -5.072667
  244       -5.067969
  245       -5.067959
  246       -5.054318
  247       -5.037920
  248       -5.033476
  249       -5.015088
  250       -5.015053
  251       -5.007480
  252       -4.999607
  253       -4.999540
  254       -4.952737
  255       -4.952735
  256       -4.943759
  257       -4.943759
  258       -4.943720
  259       -4.943718
  260       -4.929660
  261       -4.929660
  262       -4.929621
  263       -4.929618
  264       -4.924544
  265       -4.924542
  266       -4.870875
  267       -4.870285
  268       -4.870245
  269       -4.869357
  270       -4.869318
  271       -4.868600
  272       -4.845513
  273       -4.845492
  274       -4.840923
  275       -4.840902
  276       -4.823517
  277       -4.823516
  278       -4.823514
  279       -4.823514
  280       -4.733218
  281       -4.635900
  282       -4.623505
  283       -4.543404
  284       -4.543403
  285       -4.525343
  286       -4.525342
  287       -4.525335
  288       -4.525333
  289       -4.493563
  290       -4.493563
  291       -4.493555
  292       -4.493554
  293       -4.479829
  294       -4.479828
  295       -4.443107
  296       -4.443104
  297       -4.443102
  298       -4.443099
  299       -4.274031
  300       -4.274029
  301       -4.270605
  302       -4.270604
  303       -4.270604
  304       -4.270603
  305       -4.264656
  306       -4.264653
  307       -4.264642
  308       -4.264641
  309       -4.243117
  310       -4.243114
  311       -4.243105
  312       -4.243103
  313       -4.230990
  314       -4.230987
  315       -4.147181
  316       -4.124977
  317       -4.124947
  318       -4.085565
  319       -4.085533
  320       -4.068480
  321       -4.005535
  322       -4.005532
  323       -3.857584
  324       -3.857579
  325       -2.537238
  326       -2.537236
  327       -2.537235
  328       -2.537233
  329       -2.492879
  330       -2.492878
  331       -2.487854
  332       -2.487853
  333       -2.487850
  334       -2.487849
  335       -2.475190
  336       -2.475189
  337       -2.475184
  338       -2.475184
  339       -2.467229
  340       -2.467228
  341       -2.457041
  342       -2.456275
  343       -2.456268
  344       -2.453982
  345       -2.453977
  346       -2.451885
  347       -2.333084
  348       -2.332982
  349       -2.320855
  350       -2.320855
  351       -2.313377
  352       -2.313272
  353       -2.302077
  354       -2.302076
  355       -2.302046
  356       -2.302045
  357       -2.263960
  358       -2.263959
  359       -2.263938
  360       -2.263938
  361       -2.244026
  362       -2.244026
  363       -2.227886
  364       -2.227884
  365       -2.227827
  366       -2.227825
  367       -2.222253
  368       -2.199489
  369       -2.192721
  370       -2.192702
  371       -2.186971
  372       -2.184956
  373       -2.184956
  374       -2.181667
  375       -2.181628
  376       -2.178894
  377       -2.176627
  378       -2.135043
  379       -2.135041
  380       -2.134975
  381       -2.134974
  382       -2.019479
  383       -2.019466
  384       -2.014995
  385       -2.014994
  386       -1.926046
  387       -1.905029
  388       -1.905003
  389       -1.892869
  390       -1.892866
  391       -1.868557
  392       -1.868515
  393       -1.851749
  394       -1.837862
  395       -1.837859
  396       -1.837740
  397       -1.837738
  398       -1.837250
  399       -1.837248
  400       -1.833117
  401       -1.833114
  402       -1.833008
  403       -1.833006
  404       -1.828822
  405       -1.828820
  406       -1.822040
  407       -1.727885
  408       -1.705956
  409       -1.705759
  410       -1.669112
  411       -1.669111
  412       -1.659189
  413       -1.659188
  414       -1.659152
  415       -1.659151
  416       -1.655428
  417       -1.655241
  418       -1.637794
  419       -1.637794
  420       -1.637791
  421       -1.637789
  422       -1.628037
  423       -1.628036
  424       -1.626168
  425       -1.553201
  426       -1.553199
  427       -1.499681
  428       -1.499679
  429       -1.495734
  430       -1.495733
  431       -1.495718
  432       -1.495716
  433       -1.493732
  434       -1.493731
  435       -1.492913
  436       -1.492912
  437       -1.492889
  438       -1.492888
  439       -1.483507
  440       -1.483505
  441       -1.417407
  442       -1.417406
  443       -1.391029
  444       -1.382734
  445       -1.382667
  446       -1.379496
  447       -1.379494
  448       -1.379410
  449       -1.379407
  450       -1.364244
  451       -1.364158
  452       -1.354012
  453       -1.341858
  454       -1.341856
  455       -1.341794
  456       -1.341793
  457       -1.325332
  458       -1.325306
  459       -1.310271
  460       -1.310270
  461       -1.260577
  462       -1.260576
  463       -1.260542
  464       -1.260540
  465       -1.255020
  466       -1.238291
  467       -1.238220
  468       -1.207534
  469       -1.207476
  470       -1.193008
  471       -1.142847
  472       -1.142847
  473       -1.118772
  474       -1.118771
  475       -1.038047
  476       -1.038045
  477       -1.029384
  478       -1.029341
  479       -0.984633
  480       -0.982765
  481       -0.981807
  482       -0.981603
  483       -0.979232
  484       -0.979068
  485       -0.978831
  486       -0.977781
  487       -0.973613
  488       -0.949156
  489       -0.949155
  490       -0.939708
  491       -0.939706
  492       -0.939580
  493       -0.939579
  494       -0.927395
  495       -0.927394
  496       -0.927385
  497       -0.927384
  498       -0.923052
  499       -0.923052
  500       -0.879310
  501       -0.879308
  502       -0.875727
  503       -0.875725
  504       -0.875603
  505       -0.875602
  506       -0.856887
  507       -0.856886
  508       -0.856862
  509       -0.856861
  510       -0.842624
  511       -0.842623
  512       -0.728260
  513       -0.728066
  514       -0.696577
  515       -0.696576
  516       -0.672767
  517       -0.672765
  518       -0.672712
  519       -0.672711
  520       -0.663072
  521       -0.662914
  522       -0.634023
  523       -0.634021
  524       -0.633931
  525       -0.633929
  526       -0.633205
  527       -0.633204
  528       -0.633187
  529       -0.633187
  530       -0.618380
  531       -0.618379
  532       -0.456547
  533       -0.456429
  534       -0.451424
  535       -0.448788
  536       -0.448669
  537       -0.436697
  538       -0.383133
  539       -0.383133
  540       -0.383120
  541       -0.383119
  542       -0.323725
  543       -0.323722
  544       -0.291256
  545       -0.279904
  546       -0.279715
  547       -0.273102
  548       -0.270651
  549       -0.270431
  550       -0.268788
  551       -0.268788
  552       -0.268773
  553       -0.268773
  554       -0.228577
  555       -0.227041
  556       -0.161140
  557       -0.161139
  558       -0.147858
  559       -0.147857
  560       -0.147745
  561       -0.147744
  562       -0.136225
  563       -0.132189
  564       -0.132187
  565       -0.132096