 243 243   0   0
  0.1311304E+02  0.1499160E-08  0.1499160E-08  0.1637130E-08  0.5000000E-15
   4000.00000000000     
  CAR 
 (Si O2)81  (P1) ~ 3x3x3Supersel (VASP)  
     11.71636284    -21.36765184  301      3.45914418      1.00000000
    -21.368  0.0000E+00  0.0000E+00
    -21.257  0.0000E+00  0.0000E+00
    -21.147  0.0000E+00  0.0000E+00
    -21.037  0.0000E+00  0.0000E+00
    -20.927  0.0000E+00  0.0000E+00
    -20.816  0.0000E+00  0.0000E+00
    -20.706  0.0000E+00  0.0000E+00
    -20.596  0.0000E+00  0.0000E+00
    -20.485  0.0000E+00  0.0000E+00
    -20.375  0.0000E+00  0.0000E+00
    -20.265  0.0000E+00  0.0000E+00
    -20.155  0.1806E-14  0.1986E-15
    -20.044  0.2873E-05  0.3169E-06
    -19.934  0.4264E+00  0.4715E-01
    -19.824  0.1672E+02  0.1897E+01
    -19.713  0.7235E+01  0.2694E+01
    -19.603  0.6983E+01  0.3461E+01
    -19.493  0.8798E+01  0.4427E+01
    -19.383  0.1131E+02  0.5671E+01
    -19.272  0.1342E+02  0.7148E+01
    -19.162  0.1657E+02  0.8973E+01
    -19.052  0.2051E+02  0.1123E+02
    -18.941  0.2368E+02  0.1384E+02
    -18.831  0.2722E+02  0.1684E+02
    -18.721  0.2940E+02  0.2008E+02
    -18.611  0.3362E+02  0.2379E+02
    -18.500  0.3741E+02  0.2792E+02
    -18.390  0.4175E+02  0.3253E+02
    -18.280  0.4655E+02  0.3766E+02
    -18.170  0.4850E+02  0.4302E+02
    -18.059  0.5121E+02  0.4867E+02
    -17.949  0.5581E+02  0.5484E+02
    -17.839  0.5807E+02  0.6125E+02
    -17.728  0.6100E+02  0.6799E+02
    -17.618  0.6343E+02  0.7500E+02
    -17.508  0.6526E+02  0.8221E+02
    -17.398  0.6939E+02  0.8988E+02
    -17.287  0.7286E+02  0.9793E+02
    -17.177  0.7548E+02  0.1063E+03
    -17.067  0.7781E+02  0.1149E+03
    -16.956  0.8120E+02  0.1239E+03
    -16.846  0.8265E+02  0.1330E+03
    -16.736  0.8390E+02  0.1423E+03
    -16.626  0.8413E+02  0.1516E+03
    -16.515  0.8453E+02  0.1609E+03
    -16.405  0.8557E+02  0.1704E+03
    -16.295  0.8615E+02  0.1799E+03
    -16.184  0.8720E+02  0.1896E+03
    -16.074  0.8655E+02  0.1992E+03
    -15.964  0.8507E+02  0.2086E+03
    -15.854  0.8322E+02  0.2178E+03
    -15.743  0.8036E+02  0.2267E+03
    -15.633  0.7871E+02  0.2354E+03
    -15.523  0.7608E+02  0.2438E+03
    -15.413  0.7170E+02  0.2518E+03
    -15.302  0.7000E+02  0.2595E+03
    -15.192  0.6513E+02  0.2668E+03
    -15.082  0.6050E+02  0.2735E+03
    -14.971  0.5651E+02  0.2797E+03
    -14.861  0.5257E+02  0.2856E+03
    -14.751  0.4743E+02  0.2908E+03
    -14.641  0.4181E+02  0.2955E+03
    -14.530  0.3794E+02  0.2997E+03
    -14.420  0.3523E+02  0.3036E+03
    -14.310  0.3078E+02  0.3070E+03
    -14.199  0.2735E+02  0.3100E+03
    -14.089  0.2327E+02  0.3126E+03
    -13.979  0.1942E+02  0.3148E+03
    -13.869  0.1619E+02  0.3166E+03
    -13.758  0.1308E+02  0.3181E+03
    -13.648  0.1122E+02  0.3193E+03
    -13.538  0.8261E+01  0.3202E+03
    -13.427  0.6853E+01  0.3210E+03
    -13.317  0.5629E+01  0.3216E+03
    -13.207  0.4907E+01  0.3222E+03
    -13.097  0.3871E+01  0.3226E+03
    -12.986  0.2817E+01  0.3229E+03
    -12.876  0.2290E+01  0.3232E+03
    -12.766  0.1751E+01  0.3234E+03
    -12.656  0.1401E+01  0.3235E+03
    -12.545  0.9741E+00  0.3236E+03
    -12.435  0.8549E+00  0.3237E+03
    -12.325  0.6501E+00  0.3238E+03
    -12.214  0.4812E+00  0.3239E+03
    -12.104  0.3242E+00  0.3239E+03
    -11.994  0.3833E+00  0.3239E+03
    -11.884  0.2588E+00  0.3240E+03
    -11.773  0.5738E-01  0.3240E+03
    -11.663  0.8557E-01  0.3240E+03
    -11.553  0.1252E+00  0.3240E+03
    -11.442  0.5633E-01  0.3240E+03
    -11.332  0.4939E-01  0.3240E+03
    -11.222  0.7641E-03  0.3240E+03
    -11.112  0.2269E-08  0.3240E+03
    -11.001  0.0000E+00  0.3240E+03
    -10.891  0.0000E+00  0.3240E+03
    -10.781  0.0000E+00  0.3240E+03
    -10.670  0.0000E+00  0.3240E+03
    -10.560  0.0000E+00  0.3240E+03
    -10.450  0.0000E+00  0.3240E+03
    -10.340  0.0000E+00  0.3240E+03
    -10.229  0.0000E+00  0.3240E+03
    -10.119  0.0000E+00  0.3240E+03
    -10.009  0.0000E+00  0.3240E+03
     -9.899  0.0000E+00  0.3240E+03
     -9.788  0.0000E+00  0.3240E+03
     -9.678  0.0000E+00  0.3240E+03
     -9.568  0.8220E-14  0.3240E+03
     -9.457  0.1056E-05  0.3240E+03
     -9.347  0.1874E-01  0.3240E+03
     -9.237  0.3040E+00  0.3240E+03
     -9.127  0.1204E+01  0.3242E+03
     -9.016  0.2258E+01  0.3244E+03
     -8.906  0.3821E+01  0.3248E+03
     -8.796  0.4547E+01  0.3253E+03
     -8.685  0.6595E+01  0.3261E+03
     -8.575  0.8325E+01  0.3270E+03
     -8.465  0.1014E+02  0.3281E+03
     -8.355  0.1315E+02  0.3296E+03
     -8.244  0.1514E+02  0.3312E+03
     -8.134  0.1848E+02  0.3333E+03
     -8.024  0.2178E+02  0.3357E+03
     -7.913  0.2502E+02  0.3384E+03
     -7.803  0.2686E+02  0.3414E+03
     -7.693  0.2961E+02  0.3447E+03
     -7.583  0.3313E+02  0.3483E+03
     -7.472  0.3517E+02  0.3522E+03
     -7.362  0.3619E+02  0.3562E+03
     -7.252  0.3674E+02  0.3603E+03
     -7.142  0.3819E+02  0.3645E+03
     -7.031  0.3749E+02  0.3687E+03
     -6.921  0.3772E+02  0.3728E+03
     -6.811  0.3947E+02  0.3772E+03
     -6.700  0.3926E+02  0.3815E+03
     -6.590  0.3963E+02  0.3859E+03
     -6.480  0.3962E+02  0.3903E+03
     -6.370  0.4135E+02  0.3949E+03
     -6.259  0.4176E+02  0.3995E+03
     -6.149  0.4358E+02  0.4043E+03
     -6.039  0.4483E+02  0.4093E+03
     -5.928  0.4561E+02  0.4143E+03
     -5.818  0.4764E+02  0.4196E+03
     -5.708  0.4757E+02  0.4249E+03
     -5.598  0.4943E+02  0.4303E+03
     -5.487  0.5101E+02  0.4360E+03
     -5.377  0.5364E+02  0.4419E+03
     -5.267  0.5481E+02  0.4480E+03
     -5.156  0.5704E+02  0.4543E+03
     -5.046  0.5878E+02  0.4608E+03
     -4.936  0.6143E+02  0.4676E+03
     -4.826  0.6301E+02  0.4745E+03
     -4.715  0.6487E+02  0.4817E+03
     -4.605  0.6901E+02  0.4893E+03
     -4.495  0.7306E+02  0.4974E+03
     -4.385  0.7599E+02  0.5058E+03
     -4.274  0.7762E+02  0.5144E+03
     -4.164  0.8126E+02  0.5234E+03
     -4.054  0.8353E+02  0.5326E+03
     -3.943  0.8522E+02  0.5421E+03
     -3.833  0.8620E+02  0.5516E+03
     -3.723  0.8643E+02  0.5612E+03
     -3.613  0.8938E+02  0.5711E+03
     -3.502  0.8887E+02  0.5809E+03
     -3.392  0.9075E+02  0.5909E+03
     -3.282  0.9040E+02  0.6010E+03
     -3.171  0.9058E+02  0.6110E+03
     -3.061  0.9049E+02  0.6210E+03
     -2.951  0.9248E+02  0.6312E+03
     -2.841  0.9611E+02  0.6419E+03
     -2.730  0.1001E+03  0.6529E+03
     -2.620  0.1038E+03  0.6644E+03
     -2.510  0.1079E+03  0.6763E+03
     -2.399  0.1121E+03  0.6887E+03
     -2.289  0.1166E+03  0.7016E+03
     -2.179  0.1210E+03  0.7150E+03
     -2.069  0.1254E+03  0.7289E+03
     -1.958  0.1298E+03  0.7433E+03
     -1.848  0.1341E+03  0.7581E+03
     -1.738  0.1372E+03  0.7733E+03
     -1.628  0.1393E+03  0.7887E+03
     -1.517  0.1438E+03  0.8046E+03
     -1.407  0.1468E+03  0.8208E+03
     -1.297  0.1492E+03  0.8373E+03
     -1.186  0.1516E+03  0.8541E+03
     -1.076  0.1529E+03  0.8710E+03
     -0.966  0.1527E+03  0.8879E+03
     -0.856  0.1540E+03  0.9050E+03
     -0.745  0.1556E+03  0.9222E+03
     -0.635  0.1577E+03  0.9397E+03
     -0.525  0.1587E+03  0.9572E+03
     -0.414  0.1602E+03  0.9749E+03
     -0.304  0.1598E+03  0.9926E+03
     -0.194  0.1597E+03  0.1010E+04
     -0.084  0.1597E+03  0.1028E+04
      0.027  0.1589E+03  0.1046E+04
      0.137  0.1557E+03  0.1063E+04
      0.247  0.1536E+03  0.1080E+04
      0.358  0.1519E+03  0.1097E+04
      0.468  0.1469E+03  0.1113E+04
      0.578  0.1445E+03  0.1129E+04
      0.688  0.1389E+03  0.1144E+04
      0.799  0.1333E+03  0.1159E+04
      0.909  0.1285E+03  0.1173E+04
      1.019  0.1214E+03  0.1187E+04
      1.129  0.1143E+03  0.1199E+04
      1.240  0.1075E+03  0.1211E+04
      1.350  0.9993E+02  0.1222E+04
      1.460  0.9302E+02  0.1233E+04
      1.571  0.8657E+02  0.1242E+04
      1.681  0.7842E+02  0.1251E+04
      1.791  0.7184E+02  0.1259E+04
      1.901  0.6424E+02  0.1266E+04
      2.012  0.5468E+02  0.1272E+04
      2.122  0.4583E+02  0.1277E+04
      2.232  0.3770E+02  0.1281E+04
      2.343  0.2987E+02  0.1285E+04
      2.453  0.2399E+02  0.1287E+04
      2.563  0.1878E+02  0.1289E+04
      2.673  0.1489E+02  0.1291E+04
      2.784  0.1132E+02  0.1292E+04
      2.894  0.9003E+01  0.1293E+04
      3.004  0.7130E+01  0.1294E+04
      3.115  0.5190E+01  0.1295E+04
      3.225  0.3418E+01  0.1295E+04
      3.335  0.2428E+01  0.1295E+04
      3.445  0.2422E+01  0.1296E+04
      3.556  0.2068E+01  0.1296E+04
      3.666  0.1529E+01  0.1296E+04
      3.776  0.1874E+01  0.1296E+04
      3.886  0.2138E+01  0.1296E+04
      3.997  0.2231E+01  0.1297E+04
      4.107  0.2406E+01  0.1297E+04
      4.217  0.3286E+01  0.1297E+04
      4.328  0.3676E+01  0.1298E+04
      4.438  0.5391E+01  0.1298E+04
      4.548  0.6061E+01  0.1299E+04
      4.658  0.7284E+01  0.1300E+04
      4.769  0.7186E+01  0.1301E+04
      4.879  0.7711E+01  0.1301E+04
      4.989  0.9833E+01  0.1302E+04
      5.100  0.1027E+02  0.1304E+04
      5.210  0.1286E+02  0.1305E+04
      5.320  0.1430E+02  0.1307E+04
      5.430  0.1665E+02  0.1308E+04
      5.541  0.1804E+02  0.1310E+04
      5.651  0.1983E+02  0.1313E+04
      5.761  0.2242E+02  0.1315E+04
      5.872  0.2316E+02  0.1318E+04
      5.982  0.2439E+02  0.1320E+04
      6.092  0.2520E+02  0.1323E+04
      6.202  0.2732E+02  0.1326E+04
      6.313  0.2913E+02  0.1329E+04
      6.423  0.3179E+02  0.1333E+04
      6.533  0.3211E+02  0.1336E+04
      6.643  0.3324E+02  0.1340E+04
      6.754  0.3499E+02  0.1344E+04
      6.864  0.3703E+02  0.1348E+04
      6.974  0.3864E+02  0.1352E+04
      7.085  0.4034E+02  0.1357E+04
      7.195  0.4158E+02  0.1361E+04
      7.305  0.4270E+02  0.1366E+04
      7.415  0.4518E+02  0.1371E+04
      7.526  0.4651E+02  0.1376E+04
      7.636  0.5008E+02  0.1382E+04
      7.746  0.5215E+02  0.1388E+04
      7.857  0.5309E+02  0.1394E+04
      7.967  0.5558E+02  0.1400E+04
      8.077  0.5642E+02  0.1406E+04
      8.187  0.5947E+02  0.1412E+04
      8.298  0.6188E+02  0.1419E+04
      8.408  0.6420E+02  0.1426E+04
      8.518  0.6616E+02  0.1434E+04
      8.629  0.6797E+02  0.1441E+04
      8.739  0.7070E+02  0.1449E+04
      8.849  0.7317E+02  0.1457E+04
      8.959  0.7688E+02  0.1466E+04
      9.070  0.7791E+02  0.1474E+04
      9.180  0.7911E+02  0.1483E+04
      9.290  0.8234E+02  0.1492E+04
      9.400  0.8464E+02  0.1502E+04
      9.511  0.8548E+02  0.1511E+04
      9.621  0.8607E+02  0.1521E+04
      9.731  0.8479E+02  0.1530E+04
      9.842  0.8367E+02  0.1539E+04
      9.952  0.8143E+02  0.1548E+04
     10.062  0.7905E+02  0.1557E+04
     10.172  0.6878E+02  0.1565E+04
     10.283  0.3060E+02  0.1568E+04
     10.393  0.4639E+00  0.1568E+04
     10.503  0.2916E-05  0.1568E+04
     10.614  0.1123E-14  0.1568E+04
     10.724  0.0000E+00  0.1568E+04
     10.834  0.0000E+00  0.1568E+04
     10.944  0.0000E+00  0.1568E+04
     11.055  0.0000E+00  0.1568E+04
     11.165  0.0000E+00  0.1568E+04
     11.275  0.0000E+00  0.1568E+04
     11.386  0.0000E+00  0.1568E+04
     11.496  0.0000E+00  0.1568E+04
     11.606  0.0000E+00  0.1568E+04
     11.716  0.0000E+00  0.1568E+04
     11.77793924    -21.45452617  301      3.48366975      1.00000000
    -21.455  0.0000E+00  0.0000E+00
    -21.344  0.0000E+00  0.0000E+00
    -21.233  0.0000E+00  0.0000E+00
    -21.122  0.0000E+00  0.0000E+00
    -21.011  0.0000E+00  0.0000E+00
    -20.901  0.0000E+00  0.0000E+00
    -20.790  0.0000E+00  0.0000E+00
    -20.679  0.0000E+00  0.0000E+00
    -20.568  0.0000E+00  0.0000E+00
    -20.458  0.0000E+00  0.0000E+00
    -20.347  0.0000E+00  0.0000E+00
    -20.236  0.1002E-17  0.1110E-18
    -20.125  0.2657E-08  0.2943E-09
    -20.014  0.4168E-03  0.4617E-04
    -19.904  0.1534E-01  0.1745E-02
    -19.793  0.2298E-02  0.2000E-02
    -19.682  0.1696E-05  0.2000E-02
    -19.571  0.4778E-02  0.2529E-02
    -19.461  0.1316E-01  0.3988E-02
    -19.350  0.1801E-03  0.4008E-02
    -19.239  0.1329E-01  0.5480E-02
    -19.128  0.3313E-01  0.9151E-02
    -19.017  0.4108E-01  0.1370E-01
    -18.907  0.2498E-01  0.1647E-01
    -18.796  0.2914E-01  0.1970E-01
    -18.685  0.3058E-01  0.2308E-01
    -18.574  0.3194E-01  0.2662E-01
    -18.464  0.2698E-01  0.2961E-01
    -18.353  0.4933E-01  0.3508E-01
    -18.242  0.7657E-01  0.4356E-01
    -18.131  0.7161E-01  0.5149E-01
    -18.021  0.5463E-01  0.5754E-01
    -17.910  0.2521E-01  0.6033E-01
    -17.799  0.7409E-01  0.6854E-01
    -17.688  0.7971E-01  0.7737E-01
    -17.577  0.1038E+00  0.8887E-01
    -17.467  0.7797E-01  0.9751E-01
    -17.356  0.8640E-01  0.1071E+00
    -17.245  0.8102E-01  0.1161E+00
    -17.134  0.7266E-01  0.1241E+00
    -17.024  0.7168E-01  0.1320E+00
    -16.913  0.8715E-01  0.1417E+00
    -16.802  0.8707E-01  0.1513E+00
    -16.691  0.7880E-01  0.1601E+00
    -16.580  0.1017E+00  0.1713E+00
    -16.470  0.8705E-01  0.1810E+00
    -16.359  0.8488E-01  0.1904E+00
    -16.248  0.7719E-01  0.1989E+00
    -16.137  0.7711E-01  0.2075E+00
    -16.027  0.7599E-01  0.2159E+00
    -15.916  0.5786E-01  0.2223E+00
    -15.805  0.5998E-01  0.2289E+00
    -15.694  0.5728E-01  0.2353E+00
    -15.583  0.8769E-01  0.2450E+00
    -15.473  0.9678E-01  0.2557E+00
    -15.362  0.4285E-01  0.2605E+00
    -15.251  0.6735E-01  0.2679E+00
    -15.140  0.8209E-01  0.2770E+00
    -15.030  0.4393E-01  0.2819E+00
    -14.919  0.1964E-01  0.2841E+00
    -14.808  0.2963E-01  0.2873E+00
    -14.697  0.2690E-01  0.2903E+00
    -14.586  0.4194E-01  0.2950E+00
    -14.476  0.3198E-01  0.2985E+00
    -14.365  0.1608E-01  0.3003E+00
    -14.254  0.4091E-01  0.3048E+00
    -14.143  0.1173E-01  0.3061E+00
    -14.033  0.2196E-01  0.3086E+00
    -13.922  0.1292E-01  0.3100E+00
    -13.811  0.6566E-04  0.3100E+00
    -13.700  0.9349E-02  0.3110E+00
    -13.590  0.2649E-01  0.3140E+00
    -13.479  0.1096E-01  0.3152E+00
    -13.368  0.2486E-01  0.3179E+00
    -13.257  0.5739E-03  0.3180E+00
    -13.146  0.9594E-02  0.3191E+00
    -13.036  0.1738E-01  0.3210E+00
    -12.925  0.2690E-01  0.3240E+00
    -12.814  0.2624E-03  0.3240E+00
    -12.703  0.4631E-09  0.3240E+00
    -12.593  0.0000E+00  0.3240E+00
    -12.482  0.0000E+00  0.3240E+00
    -12.371  0.0000E+00  0.3240E+00
    -12.260  0.0000E+00  0.3240E+00
    -12.149  0.0000E+00  0.3240E+00
    -12.039  0.0000E+00  0.3240E+00
    -11.928  0.0000E+00  0.3240E+00
    -11.817  0.0000E+00  0.3240E+00
    -11.706  0.0000E+00  0.3240E+00
    -11.596  0.0000E+00  0.3240E+00
    -11.485  0.0000E+00  0.3240E+00
    -11.374  0.0000E+00  0.3240E+00
    -11.263  0.0000E+00  0.3240E+00
    -11.152  0.0000E+00  0.3240E+00
    -11.042  0.0000E+00  0.3240E+00
    -10.931  0.0000E+00  0.3240E+00
    -10.820  0.0000E+00  0.3240E+00
    -10.709  0.0000E+00  0.3240E+00
    -10.599  0.0000E+00  0.3240E+00
    -10.488  0.0000E+00  0.3240E+00
    -10.377  0.0000E+00  0.3240E+00
    -10.266  0.0000E+00  0.3240E+00
    -10.155  0.0000E+00  0.3240E+00
    -10.045  0.0000E+00  0.3240E+00
     -9.934  0.0000E+00  0.3240E+00
     -9.823  0.0000E+00  0.3240E+00
     -9.712  0.0000E+00  0.3240E+00
     -9.602  0.0000E+00  0.3240E+00
     -9.491  0.0000E+00  0.3240E+00
     -9.380  0.0000E+00  0.3240E+00
     -9.269  0.0000E+00  0.3240E+00
     -9.159  0.0000E+00  0.3240E+00
     -9.048  0.0000E+00  0.3240E+00
     -8.937  0.8049E-10  0.3240E+00
     -8.826  0.8009E-04  0.3240E+00
     -8.715  0.1294E-01  0.3254E+00
     -8.605  0.2085E-01  0.3278E+00
     -8.494  0.5454E-02  0.3284E+00
     -8.383  0.2478E-01  0.3311E+00
     -8.272  0.8180E-02  0.3320E+00
     -8.162  0.1424E-01  0.3336E+00
     -8.051  0.3595E-01  0.3376E+00
     -7.940  0.4077E-01  0.3421E+00
     -7.829  0.2084E-01  0.3444E+00
     -7.718  0.2058E-01  0.3467E+00
     -7.608  0.3580E-01  0.3506E+00
     -7.497  0.4898E-01  0.3561E+00
     -7.386  0.4427E-01  0.3610E+00
     -7.275  0.3368E-01  0.3647E+00
     -7.165  0.3470E-01  0.3685E+00
     -7.054  0.3057E-01  0.3719E+00
     -6.943  0.3529E-01  0.3758E+00
     -6.832  0.5238E-01  0.3816E+00
     -6.721  0.2986E-01  0.3849E+00
     -6.611  0.4514E-01  0.3899E+00
     -6.500  0.4070E-01  0.3945E+00
     -6.389  0.3413E-01  0.3982E+00
     -6.278  0.3832E-01  0.4025E+00
     -6.168  0.4044E-01  0.4070E+00
     -6.057  0.5930E-01  0.4135E+00
     -5.946  0.3790E-01  0.4177E+00
     -5.835  0.4892E-01  0.4231E+00
     -5.724  0.5659E-01  0.4294E+00
     -5.614  0.4207E-01  0.4341E+00
     -5.503  0.4830E-01  0.4394E+00
     -5.392  0.5899E-01  0.4460E+00
     -5.281  0.6550E-01  0.4532E+00
     -5.171  0.6539E-01  0.4605E+00
     -5.060  0.5573E-01  0.4666E+00
     -4.949  0.4951E-01  0.4721E+00
     -4.838  0.6690E-01  0.4795E+00
     -4.728  0.7900E-01  0.4883E+00
     -4.617  0.6918E-01  0.4959E+00
     -4.506  0.5715E-01  0.5023E+00
     -4.395  0.6740E-01  0.5097E+00
     -4.284  0.6759E-01  0.5172E+00
     -4.174  0.8037E-01  0.5261E+00
     -4.063  0.9048E-01  0.5362E+00
     -3.952  0.8641E-01  0.5457E+00
     -3.841  0.8424E-01  0.5551E+00
     -3.731  0.8440E-01  0.5644E+00
     -3.620  0.7424E-01  0.5726E+00
     -3.509  0.8877E-01  0.5825E+00
     -3.398  0.1053E+00  0.5941E+00
     -3.287  0.7832E-01  0.6028E+00
     -3.177  0.6604E-01  0.6101E+00
     -3.066  0.9511E-01  0.6207E+00
     -2.955  0.1038E+00  0.6322E+00
     -2.844  0.8606E-01  0.6417E+00
     -2.734  0.9977E-01  0.6527E+00
     -2.623  0.1042E+00  0.6643E+00
     -2.512  0.1169E+00  0.6772E+00
     -2.401  0.1367E+00  0.6924E+00
     -2.290  0.1381E+00  0.7077E+00
     -2.180  0.1375E+00  0.7229E+00
     -2.069  0.1169E+00  0.7359E+00
     -1.958  0.1301E+00  0.7503E+00
     -1.847  0.1421E+00  0.7660E+00
     -1.737  0.1396E+00  0.7815E+00
     -1.626  0.1460E+00  0.7977E+00
     -1.515  0.1406E+00  0.8132E+00
     -1.404  0.1431E+00  0.8291E+00
     -1.293  0.1467E+00  0.8453E+00
     -1.183  0.1632E+00  0.8634E+00
     -1.072  0.1681E+00  0.8820E+00
     -0.961  0.1480E+00  0.8984E+00
     -0.850  0.1539E+00  0.9155E+00
     -0.740  0.1596E+00  0.9332E+00
     -0.629  0.1693E+00  0.9519E+00
     -0.518  0.1563E+00  0.9692E+00
     -0.407  0.1527E+00  0.9861E+00
     -0.297  0.1353E+00  0.1001E+01
     -0.186  0.1488E+00  0.1018E+01
     -0.075  0.1368E+00  0.1033E+01
      0.036  0.1440E+00  0.1049E+01
      0.147  0.1529E+00  0.1066E+01
      0.257  0.1549E+00  0.1083E+01
      0.368  0.1515E+00  0.1100E+01
      0.479  0.1174E+00  0.1113E+01
      0.590  0.1254E+00  0.1127E+01
      0.700  0.1304E+00  0.1141E+01
      0.811  0.1119E+00  0.1153E+01
      0.922  0.1248E+00  0.1167E+01
      1.033  0.1290E+00  0.1181E+01
      1.144  0.1259E+00  0.1195E+01
      1.254  0.9592E-01  0.1206E+01
      1.365  0.8298E-01  0.1215E+01
      1.476  0.8732E-01  0.1225E+01
      1.587  0.6239E-01  0.1232E+01
      1.697  0.5903E-01  0.1238E+01
      1.808  0.6757E-01  0.1246E+01
      1.919  0.6763E-01  0.1253E+01
      2.030  0.4693E-01  0.1259E+01
      2.141  0.4265E-01  0.1263E+01
      2.251  0.2235E-01  0.1266E+01
      2.362  0.6250E-01  0.1273E+01
      2.473  0.4682E-01  0.1278E+01
      2.584  0.3751E-01  0.1282E+01
      2.694  0.1645E-01  0.1284E+01
      2.805  0.2148E-01  0.1286E+01
      2.916  0.1818E-01  0.1288E+01
      3.027  0.1721E-01  0.1290E+01
      3.137  0.2983E-01  0.1293E+01
      3.248  0.2208E-01  0.1296E+01
      3.359  0.1369E-02  0.1296E+01
      3.470  0.4452E-07  0.1296E+01
      3.581  0.3637E-14  0.1296E+01
      3.691  0.3332E-06  0.1296E+01
      3.802  0.2896E-02  0.1296E+01
      3.913  0.1487E-01  0.1298E+01
      4.024  0.2918E-03  0.1298E+01
      4.134  0.1208E-08  0.1298E+01
      4.245  0.0000E+00  0.1298E+01
      4.356  0.0000E+00  0.1298E+01
      4.467  0.5011E-17  0.1298E+01
      4.578  0.6096E-08  0.1298E+01
      4.688  0.6001E-03  0.1298E+01
      4.799  0.1570E-01  0.1300E+01
      4.910  0.1928E-02  0.1300E+01
      5.021  0.1402E-01  0.1302E+01
      5.131  0.5326E-02  0.1302E+01
      5.242  0.2238E-01  0.1305E+01
      5.353  0.1248E-01  0.1306E+01
      5.464  0.1518E-01  0.1308E+01
      5.575  0.1831E-01  0.1310E+01
      5.685  0.9586E-02  0.1311E+01
      5.796  0.3301E-01  0.1314E+01
      5.907  0.2293E-01  0.1317E+01
      6.018  0.2032E-01  0.1319E+01
      6.128  0.2254E-01  0.1322E+01
      6.239  0.2611E-01  0.1325E+01
      6.350  0.3111E-01  0.1328E+01
      6.461  0.4451E-01  0.1333E+01
      6.572  0.2706E-01  0.1336E+01
      6.682  0.2873E-01  0.1339E+01
      6.793  0.4294E-01  0.1344E+01
      6.904  0.5724E-01  0.1350E+01
      7.015  0.3360E-01  0.1354E+01
      7.125  0.3874E-01  0.1358E+01
      7.236  0.5442E-01  0.1364E+01
      7.347  0.5156E-01  0.1370E+01
      7.458  0.3947E-01  0.1374E+01
      7.568  0.4872E-01  0.1380E+01
      7.679  0.5921E-01  0.1386E+01
      7.790  0.5544E-01  0.1393E+01
      7.901  0.4665E-01  0.1398E+01
      8.012  0.6238E-01  0.1405E+01
      8.122  0.5747E-01  0.1411E+01
      8.233  0.4766E-01  0.1416E+01
      8.344  0.6246E-01  0.1423E+01
      8.455  0.7063E-01  0.1431E+01
      8.565  0.6128E-01  0.1438E+01
      8.676  0.7622E-01  0.1446E+01
      8.787  0.6745E-01  0.1454E+01
      8.898  0.7189E-01  0.1462E+01
      9.009  0.7863E-01  0.1470E+01
      9.119  0.6700E-01  0.1478E+01
      9.230  0.8238E-01  0.1487E+01
      9.341  0.6865E-01  0.1495E+01
      9.452  0.9971E-01  0.1506E+01
      9.562  0.6613E-01  0.1513E+01
      9.673  0.8230E-01  0.1522E+01
      9.784  0.8578E-01  0.1531E+01
      9.895  0.7803E-01  0.1540E+01
     10.006  0.8007E-01  0.1549E+01
     10.116  0.7257E-01  0.1557E+01
     10.227  0.6475E-01  0.1564E+01
     10.338  0.3364E-01  0.1568E+01
     10.449  0.4509E-03  0.1568E+01
     10.559  0.2667E-08  0.1568E+01
     10.670  0.0000E+00  0.1568E+01
     10.781  0.0000E+00  0.1568E+01
     10.892  0.0000E+00  0.1568E+01
     11.003  0.0000E+00  0.1568E+01
     11.113  0.0000E+00  0.1568E+01
     11.224  0.0000E+00  0.1568E+01
     11.335  0.0000E+00  0.1568E+01
     11.446  0.0000E+00  0.1568E+01
     11.556  0.0000E+00  0.1568E+01
     11.667  0.0000E+00  0.1568E+01
     11.778  0.0000E+00  0.1568E+01
