  243  243 1000    1
  0.1311304E+02  0.1499160E-08  0.1499160E-08  0.1637130E-08  0.5000000E-15
   4000.00000000000     
  CAR 
 (Si O2)81  (P1) ~ 3x3x3Supersel (VASP)  
   1296      1    784
 
  0.0000000E+00  0.0000000E+00  0.0000000E+00  0.1000000E+01
    1      -19.943960
    2      -19.549122
    3      -19.255549
    4      -19.183873
    5      -19.129234
    6      -19.082586
    7      -19.058371
    8      -18.931443
    9      -18.903258
   10      -18.830365
   11      -18.716886
   12      -18.695380
   13      -18.642345
   14      -18.559351
   15      -18.479152
   16      -18.417180
   17      -18.403313
   18      -18.339134
   19      -18.330465
   20      -18.282088
   21      -18.270760
   22      -18.255971
   23      -18.225259
   24      -18.202089
   25      -18.172659
   26      -18.129218
   27      -18.111050
   28      -18.090697
   29      -18.044159
   30      -17.963166
   31      -17.866693
   32      -17.864094
   33      -17.833384
   34      -17.821391
   35      -17.797341
   36      -17.774208
   37      -17.726206
   38      -17.718955
   39      -17.703614
   40      -17.654519
   41      -17.645480
   42      -17.627492
   43      -17.613719
   44      -17.605986
   45      -17.593030
   46      -17.541394
   47      -17.526920
   48      -17.500616
   49      -17.468401
   50      -17.444224
   51      -17.426207
   52      -17.413866
   53      -17.376309
   54      -17.360228
   55      -17.332922
   56      -17.305088
   57      -17.276129
   58      -17.268462
   59      -17.224359
   60      -17.217114
   61      -17.177479
   62      -17.139882
   63      -17.123841
   64      -17.100724
   65      -17.077212
   66      -17.047394
   67      -16.997289
   68      -16.973641
   69      -16.956260
   70      -16.945949
   71      -16.921258
   72      -16.907391
   73      -16.869478
   74      -16.847573
   75      -16.814304
   76      -16.809769
   77      -16.787305
   78      -16.763070
   79      -16.755344
   80      -16.716575
   81      -16.660983
   82      -16.644724
   83      -16.620481
   84      -16.609417
   85      -16.603259
   86      -16.585290
   87      -16.572986
   88      -16.549564
   89      -16.539496
   90      -16.508235
   91      -16.469134
   92      -16.423445
   93      -16.409650
   94      -16.398891
   95      -16.383300
   96      -16.348412
   97      -16.330507
   98      -16.305884
   99      -16.278810
  100      -16.248488
  101      -16.217042
  102      -16.176700
  103      -16.153418
  104      -16.144046
  105      -16.127844
  106      -16.102440
  107      -16.077509
  108      -16.070752
  109      -15.982495
  110      -15.962114
  111      -15.925095
  112      -15.922390
  113      -15.865623
  114      -15.841453
  115      -15.801084
  116      -15.775723
  117      -15.717985
  118      -15.689409
  119      -15.676576
  120      -15.647590
  121      -15.632160
  122      -15.621136
  123      -15.569556
  124      -15.555315
  125      -15.542032
  126      -15.523673
  127      -15.516555
  128      -15.505454
  129      -15.446213
  130      -15.406667
  131      -15.332228
  132      -15.321126
  133      -15.285664
  134      -15.272560
  135      -15.223893
  136      -15.207977
  137      -15.203555
  138      -15.169530
  139      -15.161360
  140      -15.080304
  141      -15.069336
  142      -14.993164
  143      -14.860582
  144      -14.807281
  145      -14.784300
  146      -14.662339
  147      -14.610273
  148      -14.599694
  149      -14.542621
  150      -14.455853
  151      -14.315271
  152      -14.313360
  153      -14.254455
  154      -14.089844
  155      -14.017401
  156      -13.684354
  157      -13.669489
  158      -13.477520
  159      -13.434624
  160      -13.149284
  161      -13.014114
  162      -13.008881
  163       -8.733665
  164       -8.645499
  165       -8.461041
  166       -8.388825
  167       -8.179224
  168       -8.116121
  169       -8.055034
  170       -8.022847
  171       -7.993535
  172       -7.897836
  173       -7.802113
  174       -7.699150
  175       -7.660871
  176       -7.586574
  177       -7.564467
  178       -7.508533
  179       -7.488911
  180       -7.426894
  181       -7.389802
  182       -7.333332
  183       -7.264741
  184       -7.200492
  185       -7.155597
  186       -7.096975
  187       -7.002281
  188       -6.960585
  189       -6.914701
  190       -6.887995
  191       -6.847375
  192       -6.805035
  193       -6.714708
  194       -6.663752
  195       -6.634742
  196       -6.589454
  197       -6.534766
  198       -6.488700
  199       -6.427560
  200       -6.365192
  201       -6.306811
  202       -6.273509
  203       -6.198903
  204       -6.167154
  205       -6.132285
  206       -6.089593
  207       -6.067829
  208       -6.041815
  209       -5.951432
  210       -5.926163
  211       -5.873380
  212       -5.833493
  213       -5.798739
  214       -5.787230
  215       -5.735325
  216       -5.686351
  217       -5.632858
  218       -5.599494
  219       -5.527989
  220       -5.508582
  221       -5.487955
  222       -5.445064
  223       -5.414571
  224       -5.366649
  225       -5.337876
  226       -5.315732
  227       -5.292557
  228       -5.248986
  229       -5.212642
  230       -5.195706
  231       -5.154880
  232       -5.147910
  233       -5.090457
  234       -5.048849
  235       -5.021667
  236       -4.958707
  237       -4.933764
  238       -4.906986
  239       -4.878759
  240       -4.842404
  241       -4.819974
  242       -4.777347
  243       -4.769147
  244       -4.740073
  245       -4.734736
  246       -4.679921
  247       -4.660816
  248       -4.638165
  249       -4.594217
  250       -4.575668
  251       -4.519952
  252       -4.488459
  253       -4.470360
  254       -4.444863
  255       -4.414442
  256       -4.366175
  257       -4.335823
  258       -4.310986
  259       -4.298394
  260       -4.246808
  261       -4.241806
  262       -4.200006
  263       -4.188520
  264       -4.150714
  265       -4.147006
  266       -4.138008
  267       -4.108727
  268       -4.074236
  269       -4.052771
  270       -4.029787
  271       -3.979525
  272       -3.973612
  273       -3.958382
  274       -3.955423
  275       -3.920355
  276       -3.900111
  277       -3.861283
  278       -3.840443
  279       -3.812988
  280       -3.802128
  281       -3.777706
  282       -3.748601
  283       -3.734187
  284       -3.675047
  285       -3.657131
  286       -3.650455
  287       -3.625775
  288       -3.571544
  289       -3.560733
  290       -3.533987
  291       -3.521816
  292       -3.514152
  293       -3.481396
  294       -3.471304
  295       -3.428565
  296       -3.423321
  297       -3.411009
  298       -3.390760
  299       -3.381982
  300       -3.360367
  301       -3.304937
  302       -3.297386
  303       -3.239651
  304       -3.225048
  305       -3.179873
  306       -3.168163
  307       -3.141123
  308       -3.119336
  309       -3.107016
  310       -3.093620
  311       -3.051124
  312       -3.035946
  313       -3.022736
  314       -3.011904
  315       -3.002861
  316       -2.973112
  317       -2.934479
  318       -2.922468
  319       -2.910360
  320       -2.865695
  321       -2.847054
  322       -2.838239
  323       -2.806964
  324       -2.783194
  325       -2.767442
  326       -2.744439
  327       -2.728600
  328       -2.722704
  329       -2.695232
  330       -2.672924
  331       -2.654150
  332       -2.627261
  333       -2.618990
  334       -2.598322
  335       -2.581729
  336       -2.560003
  337       -2.542797
  338       -2.538195
  339       -2.509605
  340       -2.495736
  341       -2.477446
  342       -2.467859
  343       -2.459738
  344       -2.438939
  345       -2.425436
  346       -2.398605
  347       -2.392736
  348       -2.387374
  349       -2.374341
  350       -2.360070
  351       -2.349004
  352       -2.339214
  353       -2.299854
  354       -2.290781
  355       -2.274367
  356       -2.267875
  357       -2.263739
  358       -2.234464
  359       -2.222560
  360       -2.205403
  361       -2.194285
  362       -2.179110
  363       -2.165659
  364       -2.153735
  365       -2.136806
  366       -2.114987
  367       -2.090810
  368       -2.063951
  369       -2.054001
  370       -2.049760
  371       -2.024095
  372       -2.021625
  373       -2.012569
  374       -1.981695
  375       -1.972704
  376       -1.951619
  377       -1.936758
  378       -1.909193
  379       -1.897641
  380       -1.890291
  381       -1.876318
  382       -1.862854
  383       -1.851635
  384       -1.845092
  385       -1.835545
  386       -1.816223
  387       -1.811125
  388       -1.784441
  389       -1.756297
  390       -1.752388
  391       -1.743086
  392       -1.734733
  393       -1.710749
  394       -1.693381
  395       -1.677348
  396       -1.664390
  397       -1.654121
  398       -1.643023
  399       -1.637166
  400       -1.613046
  401       -1.602772
  402       -1.597596
  403       -1.577451
  404       -1.565774
  405       -1.549903
  406       -1.517794
  407       -1.508158
  408       -1.503638
  409       -1.496215
  410       -1.479635
  411       -1.468017
  412       -1.441669
  413       -1.439126
  414       -1.416967
  415       -1.406088
  416       -1.387980
  417       -1.379386
  418       -1.357524
  419       -1.352470
  420       -1.325860
  421       -1.309726
  422       -1.301529
  423       -1.297298
  424       -1.287597
  425       -1.279235
  426       -1.264207
  427       -1.241093
  428       -1.231085
  429       -1.225265
  430       -1.211279
  431       -1.197000
  432       -1.185664
  433       -1.177353
  434       -1.167665
  435       -1.132681
  436       -1.125254
  437       -1.124408
  438       -1.110324
  439       -1.094837
  440       -1.089334
  441       -1.084946
  442       -1.070952
  443       -1.060627
  444       -1.039419
  445       -1.034547
  446       -1.016879
  447       -0.992244
  448       -0.977812
  449       -0.965681
  450       -0.960283
  451       -0.943293
  452       -0.938196
  453       -0.920353
  454       -0.901084
  455       -0.893406
  456       -0.881841
  457       -0.859168
  458       -0.851088
  459       -0.840450
  460       -0.831969
  461       -0.811250
  462       -0.807433
  463       -0.792564
  464       -0.787665
  465       -0.772932
  466       -0.748733
  467       -0.737675
  468       -0.727705
  469       -0.710990
  470       -0.704258
  471       -0.692629
  472       -0.673482
  473       -0.663038
  474       -0.649047
  475       -0.639656
  476       -0.637143
  477       -0.623473
  478       -0.619620
  479       -0.605837
  480       -0.596436
  481       -0.569972
  482       -0.560247
  483       -0.550298
  484       -0.530275
  485       -0.522938
  486       -0.501419
  487       -0.493081
  488       -0.482216
  489       -0.460946
  490       -0.452847
  491       -0.434441
  492       -0.428688
  493       -0.418564
  494       -0.407254
  495       -0.389927
  496       -0.371805
  497       -0.367676
  498       -0.338557
  499       -0.318141
  500       -0.308076
  501       -0.302379
  502       -0.280257
  503       -0.273208
  504       -0.258766
  505       -0.239490
  506       -0.221436
  507       -0.215190
  508       -0.206002
  509       -0.194905
  510       -0.173499
  511       -0.167451
  512       -0.150535
  513       -0.134149
  514       -0.117270
  515       -0.108719
  516       -0.099470
  517       -0.074557
  518       -0.048255
  519       -0.035991
  520       -0.018933
  521       -0.016824
  522       -0.001073
  523        0.007963
  524        0.028871
  525        0.044963
  526        0.050553
  527        0.059578
  528        0.067427
  529        0.086256
  530        0.093641
  531        0.120551
  532        0.131525
  533        0.147105
  534        0.153254
  535        0.170230
  536        0.178997
  537        0.189601
  538        0.203116
  539        0.225378
  540        0.239228
  541        0.241513
  542        0.261723
  543        0.277757
  544        0.282279
  545        0.287170
  546        0.304252
  547        0.314659
  548        0.333948
  549        0.348381
  550        0.357966
  551        0.372581
  552        0.394527
  553        0.422527
  554        0.435597
  555        0.463962
  556        0.471229
  557        0.485912
  558        0.489153
  559        0.502225
  560        0.517179
  561        0.547274
  562        0.577040
  563        0.587460
  564        0.595533
  565        0.598355
  566        0.618158
  567        0.629500
  568        0.651356
  569        0.668343
  570        0.684005
  571        0.698937
  572        0.728932
  573        0.731640
  574        0.737391
  575        0.767609
  576        0.802625
  577        0.813104
  578        0.820032
  579        0.845020
  580        0.851156
  581        0.875070
  582        0.897659
  583        0.914150
  584        0.928302
  585        0.931502
  586        0.937180
  587        0.959495
  588        0.978795
  589        1.004909
  590        1.011132
  591        1.031036
  592        1.039566
  593        1.055310
  594        1.094060
  595        1.101930
  596        1.106512
  597        1.118511
  598        1.132550
  599        1.154633
  600        1.174828
  601        1.189891
  602        1.227399
  603        1.248738
  604        1.269202
  605        1.277304
  606        1.297065
  607        1.336180
  608        1.367205
  609        1.393245
  610        1.407186
  611        1.428251
  612        1.460916
  613        1.462120
  614        1.512999
  615        1.520409
  616        1.581305
  617        1.615522
  618        1.621884
  619        1.659270
  620        1.718553
  621        1.759587
  622        1.771674
  623        1.802921
  624        1.825919
  625        1.839661
  626        1.854523
  627        1.918140
  628        1.950016
  629        2.006493
  630        2.037057
  631        2.074800
  632        2.126971
  633        2.260286
  634        2.278595
  635        2.283604
  636        2.308015
  637        2.374154
  638        2.428196
  639        2.449425
  640        2.509777
  641        2.514199
  642        2.649892
  643        2.798012
  644        2.804462
  645        2.961945
  646        3.076932
  647        3.118956
  648        3.197557
  649        3.837249
  650        4.753230
  651        4.992607
  652        5.180861
  653        5.254673
  654        5.429867
  655        5.535299
  656        5.705457
  657        5.728128
  658        5.819089
  659        5.906803
  660        6.008117
  661        6.092855
  662        6.196131
  663        6.246180
  664        6.327053
  665        6.375551
  666        6.403669
  667        6.459542
  668        6.517955
  669        6.623930
  670        6.687063
  671        6.712520
  672        6.783463
  673        6.807829
  674        6.861733
  675        6.869611
  676        6.912546
  677        6.970971
  678        7.058382
  679        7.100024
  680        7.134814
  681        7.203533
  682        7.211042
  683        7.236692
  684        7.284966
  685        7.324229
  686        7.375802
  687        7.389339
  688        7.491900
  689        7.512295
  690        7.533566
  691        7.611322
  692        7.640816
  693        7.660643
  694        7.688902
  695        7.707960
  696        7.737867
  697        7.820475
  698        7.828667
  699        7.878401
  700        7.950712
  701        7.962529
  702        7.977702
  703        8.016930
  704        8.049191
  705        8.103874
  706        8.124728
  707        8.144452
  708        8.177396
  709        8.275379
  710        8.289399
  711        8.318225
  712        8.331731
  713        8.373898
  714        8.402548
  715        8.419349
  716        8.454915
  717        8.494168
  718        8.500614
  719        8.551720
  720        8.595016
  721        8.622006
  722        8.634986
  723        8.652609
  724        8.687744
  725        8.710386
  726        8.759337
  727        8.773669
  728        8.804611
  729        8.832735
  730        8.861286
  731        8.883462
  732        8.917703
  733        8.959975
  734        8.968272
  735        8.990603
  736        9.021689
  737        9.025354
  738        9.077346
  739        9.108993
  740        9.145238
  741        9.157997
  742        9.190201
  743        9.210797
  744        9.222432
  745        9.249550
  746        9.303308
  747        9.319123
  748        9.357493
  749        9.364367
  750        9.398444
  751        9.403826
  752        9.426900
  753        9.441321
  754        9.457173
  755        9.493932
  756        9.530030
  757        9.564275
  758        9.606879
  759        9.621262
  760        9.641626
  761        9.662059
  762        9.684049
  763        9.704036
  764        9.730861
  765        9.736595
  766        9.771662
  767        9.810527
  768        9.847978
  769        9.858350
  770        9.877222
  771        9.905266
  772        9.929415
  773        9.944462
  774        9.983760
  775        9.999093
  776       10.040909
  777       10.052429
  778       10.086091
  779       10.124290
  780       10.138616
  781       10.162282
  782       10.218819
  783       10.233005
  784       10.267373
