 243 243   0   0
  0.4093724E+02  0.2198470E-08  0.2225280E-08  0.2150660E-08  0.5000000E-15
  1.000000000000000E-004
  CAR 
 SiO2_quartz_beta (1 1 1)dikte(1)vakuum( 
      4.64117194    -27.51117837  301     -3.43138432      1.00000000
    -27.511  0.0000E+00  0.0000E+00
    -27.404  0.0000E+00  0.0000E+00
    -27.297  0.0000E+00  0.0000E+00
    -27.190  0.0000E+00  0.0000E+00
    -27.082  0.0000E+00  0.0000E+00
    -26.975  0.0000E+00  0.0000E+00
    -26.868  0.0000E+00  0.0000E+00
    -26.761  0.0000E+00  0.0000E+00
    -26.654  0.0000E+00  0.0000E+00
    -26.547  0.0000E+00  0.0000E+00
    -26.439  0.0000E+00  0.0000E+00
    -26.332  0.1243E-15  0.1332E-16
    -26.225  0.6564E-07  0.7035E-08
    -26.118  0.5013E-02  0.5373E-03
    -26.011  0.1564E+00  0.1730E-01
    -25.904  0.2522E-01  0.2000E-01
    -25.796  0.6797E-04  0.2001E-01
    -25.689  0.8981E-01  0.2963E-01
    -25.582  0.2892E+00  0.6063E-01
    -25.475  0.3152E+00  0.9441E-01
    -25.368  0.5750E+00  0.1560E+00
    -25.261  0.7723E+00  0.2388E+00
    -25.153  0.3674E+00  0.2782E+00
    -25.046  0.6259E+00  0.3453E+00
    -24.939  0.5485E+00  0.4041E+00
    -24.832  0.5024E+00  0.4579E+00
    -24.725  0.7698E+00  0.5404E+00
    -24.617  0.7513E+00  0.6209E+00
    -24.510  0.8840E+00  0.7157E+00
    -24.403  0.8627E+00  0.8081E+00
    -24.296  0.7638E+00  0.8900E+00
    -24.189  0.7858E+00  0.9742E+00
    -24.082  0.7800E+00  0.1058E+01
    -23.974  0.7844E+00  0.1142E+01
    -23.867  0.9010E+00  0.1238E+01
    -23.760  0.9561E+00  0.1341E+01
    -23.653  0.1055E+01  0.1454E+01
    -23.546  0.1011E+01  0.1562E+01
    -23.439  0.1604E+01  0.1734E+01
    -23.331  0.1518E+01  0.1897E+01
    -23.224  0.1137E+01  0.2019E+01
    -23.117  0.8911E+00  0.2114E+01
    -23.010  0.1133E+01  0.2236E+01
    -22.903  0.1003E+01  0.2343E+01
    -22.796  0.7727E+00  0.2426E+01
    -22.688  0.3749E+00  0.2466E+01
    -22.581  0.6397E+00  0.2535E+01
    -22.474  0.4120E+00  0.2579E+01
    -22.367  0.3092E+00  0.2612E+01
    -22.260  0.3150E+00  0.2646E+01
    -22.152  0.2270E+00  0.2670E+01
    -22.045  0.9299E-01  0.2680E+01
    -21.938  0.2185E-03  0.2680E+01
    -21.831  0.1161E-09  0.2680E+01
    -21.724  0.4836E-11  0.2680E+01
    -21.617  0.3816E-04  0.2680E+01
    -21.509  0.5735E-01  0.2686E+01
    -21.402  0.1282E+00  0.2700E+01
    -21.295  0.1069E-02  0.2700E+01
    -21.188  0.2652E-08  0.2700E+01
    -21.081  0.2339E-03  0.2700E+01
    -20.974  0.9373E-01  0.2710E+01
    -20.866  0.9243E-01  0.2720E+01
    -20.759  0.2206E-03  0.2720E+01
    -20.652  0.1182E-09  0.2720E+01
    -20.545  0.1901E-08  0.2720E+01
    -20.438  0.9290E-03  0.2720E+01
    -20.330  0.1346E+00  0.2735E+01
    -20.223  0.2225E+00  0.2758E+01
    -20.116  0.2648E-01  0.2761E+01
    -20.009  0.3244E+00  0.2796E+01
    -19.902  0.3738E+00  0.2836E+01
    -19.795  0.4619E+00  0.2886E+01
    -19.687  0.4698E+00  0.2936E+01
    -19.580  0.8175E+00  0.3023E+01
    -19.473  0.7953E+00  0.3109E+01
    -19.366  0.7031E+00  0.3184E+01
    -19.259  0.3205E+00  0.3218E+01
    -19.152  0.2054E-01  0.3221E+01
    -19.044  0.1582E+00  0.3238E+01
    -18.937  0.2255E-01  0.3240E+01
    -18.830  0.2467E-05  0.3240E+01
    -18.723  0.4392E-13  0.3240E+01
    -18.616  0.0000E+00  0.3240E+01
    -18.509  0.0000E+00  0.3240E+01
    -18.401  0.0000E+00  0.3240E+01
    -18.294  0.0000E+00  0.3240E+01
    -18.187  0.0000E+00  0.3240E+01
    -18.080  0.0000E+00  0.3240E+01
    -17.973  0.0000E+00  0.3240E+01
    -17.865  0.0000E+00  0.3240E+01
    -17.758  0.0000E+00  0.3240E+01
    -17.651  0.0000E+00  0.3240E+01
    -17.544  0.0000E+00  0.3240E+01
    -17.437  0.0000E+00  0.3240E+01
    -17.330  0.0000E+00  0.3240E+01
    -17.222  0.0000E+00  0.3240E+01
    -17.115  0.0000E+00  0.3240E+01
    -17.008  0.0000E+00  0.3240E+01
    -16.901  0.0000E+00  0.3240E+01
    -16.794  0.0000E+00  0.3240E+01
    -16.687  0.0000E+00  0.3240E+01
    -16.579  0.0000E+00  0.3240E+01
    -16.472  0.0000E+00  0.3240E+01
    -16.365  0.0000E+00  0.3240E+01
    -16.258  0.0000E+00  0.3240E+01
    -16.151  0.0000E+00  0.3240E+01
    -16.044  0.0000E+00  0.3240E+01
    -15.936  0.0000E+00  0.3240E+01
    -15.829  0.0000E+00  0.3240E+01
    -15.722  0.0000E+00  0.3240E+01
    -15.615  0.0000E+00  0.3240E+01
    -15.508  0.2817E-12  0.3240E+01
    -15.400  0.7431E-05  0.3240E+01
    -15.293  0.3366E-01  0.3244E+01
    -15.186  0.1892E+00  0.3264E+01
    -15.079  0.1976E+00  0.3285E+01
    -14.972  0.1819E+00  0.3305E+01
    -14.865  0.1625E+00  0.3322E+01
    -14.757  0.3114E+00  0.3355E+01
    -14.650  0.2453E+00  0.3382E+01
    -14.543  0.3855E+00  0.3423E+01
    -14.436  0.3991E+00  0.3466E+01
    -14.329  0.2843E+00  0.3496E+01
    -14.222  0.3550E+00  0.3534E+01
    -14.114  0.5355E+00  0.3592E+01
    -14.007  0.4439E+00  0.3639E+01
    -13.900  0.4633E+00  0.3689E+01
    -13.793  0.2421E+00  0.3715E+01
    -13.686  0.2470E+00  0.3741E+01
    -13.578  0.1742E+00  0.3760E+01
    -13.471  0.2083E+00  0.3782E+01
    -13.364  0.3246E+00  0.3817E+01
    -13.257  0.2825E+00  0.3847E+01
    -13.150  0.3913E+00  0.3889E+01
    -13.043  0.5313E+00  0.3946E+01
    -12.935  0.4346E+00  0.3993E+01
    -12.828  0.5794E+00  0.4055E+01
    -12.721  0.3954E+00  0.4097E+01
    -12.614  0.4037E+00  0.4141E+01
    -12.507  0.3705E+00  0.4180E+01
    -12.400  0.5171E+00  0.4236E+01
    -12.292  0.7639E+00  0.4318E+01
    -12.185  0.5605E+00  0.4378E+01
    -12.078  0.6165E+00  0.4444E+01
    -11.971  0.6654E+00  0.4515E+01
    -11.864  0.6532E+00  0.4585E+01
    -11.757  0.7801E+00  0.4669E+01
    -11.649  0.6108E+00  0.4734E+01
    -11.542  0.6321E+00  0.4802E+01
    -11.435  0.8471E+00  0.4893E+01
    -11.328  0.8344E+00  0.4982E+01
    -11.221  0.7957E+00  0.5067E+01
    -11.113  0.1007E+01  0.5175E+01
    -11.006  0.8719E+00  0.5269E+01
    -10.899  0.7518E+00  0.5349E+01
    -10.792  0.8163E+00  0.5437E+01
    -10.685  0.9115E+00  0.5534E+01
    -10.578  0.6441E+00  0.5603E+01
    -10.470  0.7762E+00  0.5687E+01
    -10.363  0.4130E+00  0.5731E+01
    -10.256  0.6855E+00  0.5804E+01
    -10.149  0.6471E+00  0.5874E+01
    -10.042  0.4342E+00  0.5920E+01
     -9.935  0.6196E+00  0.5987E+01
     -9.827  0.5378E+00  0.6044E+01
     -9.720  0.3417E+00  0.6081E+01
     -9.613  0.6803E+00  0.6154E+01
     -9.506  0.6660E+00  0.6225E+01
     -9.399  0.1006E+01  0.6333E+01
     -9.292  0.1069E+01  0.6448E+01
     -9.184  0.1063E+01  0.6561E+01
     -9.077  0.1046E+01  0.6674E+01
     -8.970  0.1319E+01  0.6815E+01
     -8.863  0.1259E+01  0.6950E+01
     -8.756  0.1073E+01  0.7065E+01
     -8.648  0.1480E+01  0.7223E+01
     -8.541  0.1478E+01  0.7382E+01
     -8.434  0.1303E+01  0.7522E+01
     -8.327  0.1320E+01  0.7663E+01
     -8.220  0.1940E+01  0.7871E+01
     -8.113  0.1919E+01  0.8077E+01
     -8.005  0.1941E+01  0.8285E+01
     -7.898  0.1734E+01  0.8470E+01
     -7.791  0.1572E+01  0.8639E+01
     -7.684  0.1534E+01  0.8803E+01
     -7.577  0.1459E+01  0.8960E+01
     -7.470  0.1468E+01  0.9117E+01
     -7.362  0.1626E+01  0.9291E+01
     -7.255  0.1409E+01  0.9442E+01
     -7.148  0.1613E+01  0.9615E+01
     -7.041  0.1597E+01  0.9786E+01
     -6.934  0.1779E+01  0.9977E+01
     -6.826  0.1665E+01  0.1016E+02
     -6.719  0.1425E+01  0.1031E+02
     -6.612  0.1511E+01  0.1047E+02
     -6.505  0.1376E+01  0.1062E+02
     -6.398  0.1524E+01  0.1078E+02
     -6.291  0.1048E+01  0.1089E+02
     -6.183  0.8975E+00  0.1099E+02
     -6.076  0.8994E+00  0.1109E+02
     -5.969  0.9291E+00  0.1119E+02
     -5.862  0.6834E+00  0.1126E+02
     -5.755  0.8141E+00  0.1135E+02
     -5.648  0.7834E+00  0.1143E+02
     -5.540  0.8985E+00  0.1153E+02
     -5.433  0.9569E+00  0.1163E+02
     -5.326  0.5507E+00  0.1169E+02
     -5.219  0.7673E+00  0.1177E+02
     -5.112  0.6180E+00  0.1184E+02
     -5.005  0.1248E+01  0.1197E+02
     -4.897  0.4704E+00  0.1202E+02
     -4.790  0.3597E+00  0.1206E+02
     -4.683  0.4234E+00  0.1210E+02
     -4.576  0.5147E+00  0.1216E+02
     -4.469  0.2348E+00  0.1218E+02
     -4.361  0.1428E+00  0.1220E+02
     -4.254  0.2141E+00  0.1222E+02
     -4.147  0.4055E+00  0.1227E+02
     -4.040  0.6224E+00  0.1233E+02
     -3.933  0.7200E+00  0.1241E+02
     -3.826  0.6905E+00  0.1248E+02
     -3.718  0.6478E+00  0.1255E+02
     -3.611  0.8584E+00  0.1265E+02
     -3.504  0.1362E+01  0.1279E+02
     -3.397  0.2171E+01  0.1302E+02
     -3.290  0.5827E+00  0.1309E+02
     -3.183  0.2896E+00  0.1312E+02
     -3.075  0.2071E-01  0.1312E+02
     -2.968  0.1808E-05  0.1312E+02
     -2.861  0.2619E-13  0.1312E+02
     -2.754  0.0000E+00  0.1312E+02
     -2.647  0.0000E+00  0.1312E+02
     -2.540  0.0000E+00  0.1312E+02
     -2.432  0.1151E-13  0.1312E+02
     -2.325  0.1128E-05  0.1312E+02
     -2.218  0.2012E-01  0.1312E+02
     -2.111  0.3418E+00  0.1316E+02
     -2.004  0.3609E+00  0.1320E+02
     -1.896  0.2472E-01  0.1320E+02
     -1.789  0.1286E+00  0.1321E+02
     -1.682  0.1560E+00  0.1323E+02
     -1.575  0.2724E+00  0.1326E+02
     -1.468  0.2434E+00  0.1329E+02
     -1.361  0.3753E+00  0.1333E+02
     -1.253  0.1724E+00  0.1334E+02
     -1.146  0.1996E+00  0.1337E+02
     -1.039  0.3634E+00  0.1340E+02
     -0.932  0.4432E+00  0.1345E+02
     -0.825  0.2492E+00  0.1348E+02
     -0.718  0.2900E+00  0.1351E+02
     -0.610  0.9332E-01  0.1352E+02
     -0.503  0.2007E+00  0.1354E+02
     -0.396  0.1808E+00  0.1356E+02
     -0.289  0.1642E+00  0.1358E+02
     -0.182  0.1439E+00  0.1359E+02
     -0.075  0.2300E+00  0.1362E+02
      0.033  0.1225E+00  0.1363E+02
      0.140  0.2215E+00  0.1366E+02
      0.247  0.9072E-01  0.1367E+02
      0.354  0.1434E+00  0.1368E+02
      0.461  0.1628E+00  0.1370E+02
      0.569  0.6764E-01  0.1371E+02
      0.676  0.3032E+00  0.1374E+02
      0.783  0.3122E+00  0.1377E+02
      0.890  0.2483E+00  0.1380E+02
      0.997  0.4403E+00  0.1385E+02
      1.104  0.5883E+00  0.1391E+02
      1.212  0.5487E+00  0.1397E+02
      1.319  0.6789E+00  0.1404E+02
      1.426  0.5456E+00  0.1410E+02
      1.533  0.6118E+00  0.1416E+02
      1.640  0.6354E+00  0.1423E+02
      1.747  0.5881E+00  0.1429E+02
      1.855  0.7098E+00  0.1437E+02
      1.962  0.8311E+00  0.1446E+02
      2.069  0.7364E+00  0.1454E+02
      2.176  0.1071E+01  0.1465E+02
      2.283  0.6576E+00  0.1472E+02
      2.391  0.8666E+00  0.1482E+02
      2.498  0.9008E+00  0.1491E+02
      2.605  0.9933E+00  0.1502E+02
      2.712  0.1080E+01  0.1514E+02
      2.819  0.1026E+01  0.1525E+02
      2.926  0.1295E+01  0.1538E+02
      3.034  0.1109E+01  0.1550E+02
      3.141  0.1187E+01  0.1563E+02
      3.248  0.4540E+00  0.1568E+02
      3.355  0.5630E-02  0.1568E+02
      3.462  0.6618E-07  0.1568E+02
      3.569  0.1243E-15  0.1568E+02
      3.677  0.0000E+00  0.1568E+02
      3.784  0.0000E+00  0.1568E+02
      3.891  0.0000E+00  0.1568E+02
      3.998  0.0000E+00  0.1568E+02
      4.105  0.0000E+00  0.1568E+02
      4.212  0.0000E+00  0.1568E+02
      4.320  0.0000E+00  0.1568E+02
      4.427  0.0000E+00  0.1568E+02
      4.534  0.0000E+00  0.1568E+02
      4.641  0.0000E+00  0.1568E+02
