  243  243  100    1
  0.4093724E+02  0.2198470E-08  0.2225280E-08  0.2150660E-08  0.5000000E-15
  1.000000000000000E-004
  CAR 
 SiO2_quartz_beta (1 1 1)dikte(1)vakuum( 
   1296      1    784
 
  0.0000000E+00  0.0000000E+00  0.0000000E+00  0.1000000E+01
    1      -26.049708
    2      -25.676014
    3      -25.648905
    4      -25.527732
    5      -25.482428
    6      -25.434179
    7      -25.424687
    8      -25.356249
    9      -25.343163
   10      -25.330059
   11      -25.324094
   12      -25.292533
   13      -25.229677
   14      -25.170756
   15      -25.119494
   16      -25.091953
   17      -25.083943
   18      -25.040730
   19      -24.995216
   20      -24.961484
   21      -24.935835
   22      -24.882884
   23      -24.838417
   24      -24.804709
   25      -24.785294
   26      -24.781470
   27      -24.738488
   28      -24.698127
   29      -24.689434
   30      -24.676393
   31      -24.633051
   32      -24.591232
   33      -24.579230
   34      -24.562988
   35      -24.544821
   36      -24.528012
   37      -24.486036
   38      -24.462231
   39      -24.439033
   40      -24.418046
   41      -24.397671
   42      -24.381884
   43      -24.370405
   44      -24.349136
   45      -24.292191
   46      -24.247106
   47      -24.235886
   48      -24.203163
   49      -24.195526
   50      -24.174538
   51      -24.154190
   52      -24.144971
   53      -24.092882
   54      -24.049179
   55      -24.036372
   56      -24.016435
   57      -24.002837
   58      -23.966247
   59      -23.914418
   60      -23.894609
   61      -23.890855
   62      -23.878172
   63      -23.864837
   64      -23.851503
   65      -23.801419
   66      -23.795824
   67      -23.786374
   68      -23.742785
   69      -23.723797
   70      -23.703579
   71      -23.690862
   72      -23.677580
   73      -23.655838
   74      -23.643852
   75      -23.622377
   76      -23.589698
   77      -23.580327
   78      -23.545444
   79      -23.537003
   80      -23.518448
   81      -23.503508
   82      -23.497450
   83      -23.484815
   84      -23.471856
   85      -23.467926
   86      -23.455753
   87      -23.448814
   88      -23.435594
   89      -23.421577
   90      -23.395410
   91      -23.378658
   92      -23.366183
   93      -23.357564
   94      -23.345529
   95      -23.336270
   96      -23.327309
   97      -23.316461
   98      -23.295530
   99      -23.288809
  100      -23.285374
  101      -23.222422
  102      -23.204355
  103      -23.196065
  104      -23.165355
  105      -23.143644
  106      -23.115729
  107      -23.092288
  108      -23.077866
  109      -23.073682
  110      -23.058217
  111      -23.045058
  112      -23.017673
  113      -22.993328
  114      -22.965799
  115      -22.952181
  116      -22.943411
  117      -22.910376
  118      -22.899472
  119      -22.875667
  120      -22.852705
  121      -22.844701
  122      -22.778571
  123      -22.755218
  124      -22.657947
  125      -22.646298
  126      -22.617804
  127      -22.588772
  128      -22.564192
  129      -22.513541
  130      -22.422951
  131      -22.374670
  132      -22.312959
  133      -22.245901
  134      -22.152866
  135      -21.491626
  136      -20.973847
  137      -20.346535
  138      -20.272713
  139      -20.057143
  140      -20.037309
  141      -19.959375
  142      -19.933270
  143      -19.837287
  144      -19.807797
  145      -19.799955
  146      -19.762778
  147      -19.685436
  148      -19.650816
  149      -19.646528
  150      -19.629266
  151      -19.605001
  152      -19.572757
  153      -19.535847
  154      -19.508794
  155      -19.499901
  156      -19.468725
  157      -19.458642
  158      -19.417110
  159      -19.386629
  160      -19.366740
  161      -19.309053
  162      -19.085787
  163      -15.260966
  164      -15.157736
  165      -15.056828
  166      -14.946334
  167      -14.819425
  168      -14.780166
  169      -14.704542
  170      -14.605218
  171      -14.589509
  172      -14.521211
  173      -14.463368
  174      -14.435953
  175      -14.356372
  176      -14.260920
  177      -14.216495
  178      -14.195857
  179      -14.187472
  180      -14.100927
  181      -14.090632
  182      -14.032940
  183      -13.971722
  184      -13.947953
  185      -13.904395
  186      -13.802212
  187      -13.754102
  188      -13.638464
  189      -13.517476
  190      -13.440039
  191      -13.399415
  192      -13.296223
  193      -13.245652
  194      -13.216344
  195      -13.140589
  196      -13.093526
  197      -13.089192
  198      -13.037433
  199      -12.980470
  200      -12.935474
  201      -12.900477
  202      -12.885749
  203      -12.826431
  204      -12.813283
  205      -12.731274
  206      -12.690592
  207      -12.666724
  208      -12.569948
  209      -12.515422
  210      -12.495782
  211      -12.455437
  212      -12.393546
  213      -12.374604
  214      -12.353720
  215      -12.343768
  216      -12.324934
  217      -12.253626
  218      -12.231304
  219      -12.198878
  220      -12.162688
  221      -12.136591
  222      -12.097108
  223      -12.059251
  224      -12.041172
  225      -12.030651
  226      -11.965835
  227      -11.950837
  228      -11.923512
  229      -11.882531
  230      -11.848309
  231      -11.826553
  232      -11.818520
  233      -11.792391
  234      -11.756684
  235      -11.717961
  236      -11.677634
  237      -11.656320
  238      -11.631296
  239      -11.592645
  240      -11.560673
  241      -11.512854
  242      -11.505379
  243      -11.497194
  244      -11.469644
  245      -11.431419
  246      -11.414470
  247      -11.389543
  248      -11.363611
  249      -11.350430
  250      -11.326539
  251      -11.269738
  252      -11.258764
  253      -11.237162
  254      -11.225268
  255      -11.191200
  256      -11.178418
  257      -11.150333
  258      -11.142632
  259      -11.122558
  260      -11.101248
  261      -11.074758
  262      -11.054136
  263      -11.036218
  264      -11.001621
  265      -10.975829
  266      -10.959818
  267      -10.929847
  268      -10.899957
  269      -10.864413
  270      -10.834896
  271      -10.812269
  272      -10.796227
  273      -10.775958
  274      -10.767752
  275      -10.746763
  276      -10.724413
  277      -10.701403
  278      -10.657366
  279      -10.593605
  280      -10.585534
  281      -10.577817
  282      -10.550063
  283      -10.543507
  284      -10.513553
  285      -10.450942
  286      -10.438968
  287      -10.359503
  288      -10.316497
  289      -10.285432
  290      -10.266804
  291      -10.258541
  292      -10.230923
  293      -10.205225
  294      -10.172001
  295      -10.063239
  296      -10.054927
  297      -10.034284
  298      -10.006451
  299       -9.988342
  300       -9.910914
  301       -9.896438
  302       -9.868452
  303       -9.815957
  304       -9.716395
  305       -9.703640
  306       -9.694856
  307       -9.654195
  308       -9.634049
  309       -9.559957
  310       -9.551491
  311       -9.504087
  312       -9.497675
  313       -9.485819
  314       -9.477968
  315       -9.438382
  316       -9.416476
  317       -9.395331
  318       -9.383135
  319       -9.366962
  320       -9.346453
  321       -9.338585
  322       -9.326396
  323       -9.278553
  324       -9.259350
  325       -9.252131
  326       -9.223684
  327       -9.211668
  328       -9.193009
  329       -9.180250
  330       -9.170013
  331       -9.128965
  332       -9.110400
  333       -9.083988
  334       -9.083597
  335       -9.065173
  336       -9.046079
  337       -9.034143
  338       -9.021437
  339       -9.011725
  340       -9.005508
  341       -8.961899
  342       -8.949393
  343       -8.944062
  344       -8.934646
  345       -8.908438
  346       -8.897285
  347       -8.881270
  348       -8.868801
  349       -8.853174
  350       -8.816596
  351       -8.797865
  352       -8.772442
  353       -8.766094
  354       -8.754407
  355       -8.731318
  356       -8.728011
  357       -8.709575
  358       -8.692497
  359       -8.677487
  360       -8.669635
  361       -8.654839
  362       -8.642434
  363       -8.630304
  364       -8.622767
  365       -8.617382
  366       -8.592059
  367       -8.580374
  368       -8.564410
  369       -8.553270
  370       -8.534994
  371       -8.522050
  372       -8.504923
  373       -8.483726
  374       -8.471024
  375       -8.454968
  376       -8.446387
  377       -8.431157
  378       -8.420059
  379       -8.389191
  380       -8.369216
  381       -8.361423
  382       -8.350700
  383       -8.324624
  384       -8.322326
  385       -8.305680
  386       -8.295848
  387       -8.291581
  388       -8.273555
  389       -8.273084
  390       -8.257788
  391       -8.246500
  392       -8.245750
  393       -8.230869
  394       -8.220132
  395       -8.211293
  396       -8.206703
  397       -8.190256
  398       -8.175003
  399       -8.164227
  400       -8.153492
  401       -8.145804
  402       -8.140247
  403       -8.125659
  404       -8.118240
  405       -8.104790
  406       -8.099886
  407       -8.082968
  408       -8.074571
  409       -8.060832
  410       -8.051123
  411       -8.043352
  412       -8.026413
  413       -8.021599
  414       -8.012900
  415       -8.007773
  416       -7.995084
  417       -7.981544
  418       -7.977541
  419       -7.965210
  420       -7.950434
  421       -7.930171
  422       -7.915735
  423       -7.911230
  424       -7.899753
  425       -7.892733
  426       -7.876864
  427       -7.858019
  428       -7.851618
  429       -7.829658
  430       -7.819803
  431       -7.808144
  432       -7.800728
  433       -7.785830
  434       -7.773155
  435       -7.765733
  436       -7.730856
  437       -7.722279
  438       -7.715399
  439       -7.704891
  440       -7.699827
  441       -7.676053
  442       -7.669533
  443       -7.663377
  444       -7.643826
  445       -7.609229
  446       -7.604478
  447       -7.598312
  448       -7.588633
  449       -7.566916
  450       -7.558244
  451       -7.547052
  452       -7.535720
  453       -7.506473
  454       -7.497957
  455       -7.495062
  456       -7.474732
  457       -7.455878
  458       -7.449148
  459       -7.426967
  460       -7.425173
  461       -7.409329
  462       -7.402632
  463       -7.388386
  464       -7.383398
  465       -7.371222
  466       -7.346452
  467       -7.332660
  468       -7.322076
  469       -7.313247
  470       -7.297322
  471       -7.273212
  472       -7.265770
  473       -7.249132
  474       -7.237399
  475       -7.211378
  476       -7.207401
  477       -7.198605
  478       -7.179840
  479       -7.165601
  480       -7.163390
  481       -7.152637
  482       -7.142392
  483       -7.135888
  484       -7.118995
  485       -7.103172
  486       -7.094610
  487       -7.072606
  488       -7.054831
  489       -7.047879
  490       -7.044132
  491       -7.032808
  492       -7.010047
  493       -6.999269
  494       -6.985452
  495       -6.977805
  496       -6.969136
  497       -6.958198
  498       -6.949286
  499       -6.941558
  500       -6.921271
  501       -6.915799
  502       -6.906712
  503       -6.899927
  504       -6.884393
  505       -6.871665
  506       -6.865961
  507       -6.845803
  508       -6.833940
  509       -6.815175
  510       -6.800668
  511       -6.783134
  512       -6.767825
  513       -6.754885
  514       -6.746518
  515       -6.727868
  516       -6.717901
  517       -6.698731
  518       -6.696588
  519       -6.680381
  520       -6.672811
  521       -6.655579
  522       -6.648737
  523       -6.633927
  524       -6.607249
  525       -6.588236
  526       -6.576566
  527       -6.573822
  528       -6.562189
  529       -6.550674
  530       -6.522681
  531       -6.500964
  532       -6.494349
  533       -6.476218
  534       -6.470347
  535       -6.458586
  536       -6.451315
  537       -6.426551
  538       -6.419563
  539       -6.409578
  540       -6.391662
  541       -6.379435
  542       -6.370009
  543       -6.344142
  544       -6.319735
  545       -6.314036
  546       -6.250548
  547       -6.231360
  548       -6.218249
  549       -6.202963
  550       -6.183272
  551       -6.158142
  552       -6.153075
  553       -6.136627
  554       -6.105554
  555       -6.070647
  556       -6.023606
  557       -6.016739
  558       -5.988007
  559       -5.978942
  560       -5.967572
  561       -5.958711
  562       -5.943802
  563       -5.859084
  564       -5.843748
  565       -5.818845
  566       -5.802926
  567       -5.782650
  568       -5.742207
  569       -5.727692
  570       -5.695641
  571       -5.657947
  572       -5.643786
  573       -5.621574
  574       -5.617767
  575       -5.593739
  576       -5.577576
  577       -5.510570
  578       -5.500332
  579       -5.493209
  580       -5.488507
  581       -5.481946
  582       -5.445851
  583       -5.355095
  584       -5.348806
  585       -5.309733
  586       -5.300988
  587       -5.300016
  588       -5.269656
  589       -5.206028
  590       -5.192774
  591       -5.127095
  592       -5.115384
  593       -5.097905
  594       -5.065669
  595       -5.063699
  596       -5.051202
  597       -5.040371
  598       -5.029048
  599       -5.011356
  600       -5.003619
  601       -4.928964
  602       -4.866177
  603       -4.820594
  604       -4.751967
  605       -4.712663
  606       -4.674218
  607       -4.613478
  608       -4.603530
  609       -4.560639
  610       -4.442991
  611       -4.267621
  612       -4.253133
  613       -4.169462
  614       -4.133874
  615       -4.119410
  616       -4.058955
  617       -4.053686
  618       -4.013326
  619       -3.985741
  620       -3.968724
  621       -3.932175
  622       -3.900533
  623       -3.876624
  624       -3.853278
  625       -3.808258
  626       -3.795777
  627       -3.737016
  628       -3.719501
  629       -3.700110
  630       -3.676406
  631       -3.657875
  632       -3.649306
  633       -3.587395
  634       -3.572197
  635       -3.567872
  636       -3.541559
  637       -3.536834
  638       -3.535447
  639       -3.507646
  640       -3.501342
  641       -3.486109
  642       -3.480277
  643       -3.469360
  644       -3.463884
  645       -3.460914
  646       -3.454155
  647       -3.441688
  648       -3.437289
  649       -3.429795
  650       -3.428176
  651       -3.419571
  652       -3.415801
  653       -3.392731
  654       -3.344041
  655       -3.277536
  656       -3.226432
  657       -2.170233
  658       -2.144976
  659       -2.066905
  660       -2.051081
  661       -1.807219
  662       -1.681608
  663       -1.618904
  664       -1.529403
  665       -1.447479
  666       -1.410441
  667       -1.350952
  668       -1.227614
  669       -1.125856
  670       -1.078799
  671       -1.011377
  672       -1.004581
  673       -0.942586
  674       -0.867995
  675       -0.771539
  676       -0.724211
  677       -0.530335
  678       -0.485497
  679       -0.341501
  680       -0.194336
  681       -0.128688
  682        0.025200
  683        0.112158
  684        0.268798
  685        0.414025
  686        0.590877
  687        0.652927
  688        0.710504
  689        0.775353
  690        0.871557
  691        0.927586
  692        0.945838
  693        1.022170
  694        1.042544
  695        1.072062
  696        1.113165
  697        1.134382
  698        1.165488
  699        1.223290
  700        1.267220
  701        1.277791
  702        1.297367
  703        1.332945
  704        1.362040
  705        1.403491
  706        1.464498
  707        1.481711
  708        1.497181
  709        1.544959
  710        1.586480
  711        1.613697
  712        1.636536
  713        1.663602
  714        1.686887
  715        1.748821
  716        1.770702
  717        1.804096
  718        1.836088
  719        1.849938
  720        1.872546
  721        1.909038
  722        1.930563
  723        1.952807
  724        1.976507
  725        1.983831
  726        2.016168
  727        2.064603
  728        2.089207
  729        2.114898
  730        2.124169
  731        2.135652
  732        2.150962
  733        2.163579
  734        2.179041
  735        2.228497
  736        2.275481
  737        2.295152
  738        2.307392
  739        2.338572
  740        2.360562
  741        2.388851
  742        2.392267
  743        2.434425
  744        2.457421
  745        2.478603
  746        2.485146
  747        2.513848
  748        2.541430
  749        2.550848
  750        2.582424
  751        2.586748
  752        2.621059
  753        2.635835
  754        2.644741
  755        2.672053
  756        2.686169
  757        2.711351
  758        2.718913
  759        2.737343
  760        2.782505
  761        2.788751
  762        2.809022
  763        2.822648
  764        2.837484
  765        2.855775
  766        2.868779
  767        2.886037
  768        2.900896
  769        2.909736
  770        2.923055
  771        2.953798
  772        2.963900
  773        2.979092
  774        2.994649
  775        3.028761
  776        3.041513
  777        3.055406
  778        3.080850
  779        3.090351
  780        3.103464
  781        3.125863
  782        3.130963
  783        3.148811
  784        3.179701
