       N       E                     dE             d eps       ncg     rms          rms(c)
DAV:   1     0.119802621320E+05    0.11980E+05   -0.48108E+05  1776   0.107E+03
DAV:   2     0.285096211152E+03   -0.11695E+05   -0.11345E+05  2128   0.306E+02
DAV:   3    -0.197672510180E+04   -0.22618E+04   -0.22314E+04  1744   0.145E+02
DAV:   4    -0.205171512394E+04   -0.74990E+02   -0.74708E+02  1760   0.296E+01
DAV:   5    -0.205411982251E+04   -0.24047E+01   -0.24025E+01  1944   0.454E+00    0.134E+02
DAV:   6    -0.183177760027E+04    0.22234E+03   -0.13966E+03  1776   0.476E+01    0.979E+01
DAV:   7    -0.176494396078E+04    0.66834E+02   -0.37766E+02  1760   0.244E+01    0.670E+01
DAV:   8    -0.173126592432E+04    0.33678E+02   -0.23992E+02  2096   0.210E+01    0.448E+01
DAV:   9    -0.173205161555E+04   -0.78569E+00   -0.97377E+01  2072   0.172E+01    0.722E+01
DAV:  10    -0.171947132105E+04    0.12580E+02   -0.71490E+01  1824   0.963E+00    0.593E+01
DAV:  11    -0.172145063127E+04   -0.19793E+01   -0.46077E+01  1896   0.782E+00    0.463E+01
DAV:  12    -0.171919730384E+04    0.22533E+01   -0.27106E+01  1912   0.600E+00    0.490E+01
DAV:  13    -0.171423216232E+04    0.49651E+01   -0.31041E+01  1824   0.454E+00    0.480E+01
DAV:  14    -0.170376618999E+04    0.10466E+02   -0.26198E+01  1976   0.455E+00    0.453E+01
DAV:  15    -0.169706873167E+04    0.66975E+01   -0.11035E+01  1856   0.339E+00    0.347E+01
DAV:  16    -0.169267439514E+04    0.43943E+01   -0.90102E+00  1848   0.244E+00    0.301E+01
DAV:  17    -0.169048659322E+04    0.21878E+01   -0.80291E+00  1928   0.215E+00    0.210E+01
DAV:  18    -0.169023490186E+04    0.25169E+00   -0.44284E+00  1824   0.144E+00    0.222E+01
DAV:  19    -0.169033918302E+04   -0.10428E+00   -0.34788E+00  1896   0.114E+00    0.254E+01
DAV:  20    -0.168961326110E+04    0.72592E+00   -0.27768E+00  1832   0.896E-01    0.162E+01
DAV:  21    -0.168960890126E+04    0.43598E-02   -0.25757E+00  1864   0.920E-01    0.226E+01
DAV:  22    -0.168937333997E+04    0.23556E+00   -0.19071E+00  1832   0.776E-01    0.195E+01
DAV:  23    -0.168939474430E+04   -0.21404E-01   -0.27321E+00  1904   0.980E-01    0.189E+01
DAV:  24    -0.168944870502E+04   -0.53961E-01   -0.35358E+00  1880   0.990E-01    0.173E+01
DAV:  25    -0.168991878455E+04   -0.47008E+00   -0.18734E+00  1896   0.108E+00    0.300E+01
DAV:  26    -0.168892438115E+04    0.99440E+00   -0.22169E+00  1880   0.109E+00    0.197E+01
DAV:  27    -0.168957940225E+04   -0.65502E+00   -0.29329E+00  1872   0.110E+00    0.250E+01
DAV:  28    -0.168870749053E+04    0.87191E+00   -0.91154E-01  1832   0.970E-01    0.202E+01
DAV:  29    -0.168896284644E+04   -0.25536E+00   -0.10510E+00  1776   0.878E-01    0.182E+01
DAV:  30    -0.168897646023E+04   -0.13614E-01   -0.89707E-01  1816   0.839E-01    0.175E+01
DAV:  31    -0.168856502960E+04    0.41143E+00   -0.19037E+00  1832   0.898E-01    0.150E+01
DAV:  32    -0.168857066771E+04   -0.56381E-02   -0.10370E+00  1848   0.887E-01    0.184E+01
DAV:  33    -0.168857659007E+04   -0.59224E-02   -0.14858E+00  1840   0.748E-01    0.177E+01
DAV:  34    -0.168837549100E+04    0.20110E+00   -0.11690E+00  1736   0.598E-01    0.119E+01
DAV:  35    -0.168831887686E+04    0.56614E-01   -0.25660E-01  1648   0.386E-01    0.987E+00
DAV:  36    -0.168831817642E+04    0.70044E-03   -0.38774E-01  1760   0.326E-01    0.980E+00
DAV:  37    -0.168831357820E+04    0.45982E-02   -0.45630E-01  1768   0.370E-01    0.980E+00
DAV:  38    -0.168831741895E+04   -0.38407E-02   -0.29084E-01  1768   0.379E-01    0.839E+00
DAV:  39    -0.168833559895E+04   -0.18180E-01   -0.24614E-01  1816   0.339E-01    0.901E+00
DAV:  40    -0.168826871745E+04    0.66882E-01   -0.24730E-01  1736   0.333E-01    0.723E+00
DAV:  41    -0.168826362877E+04    0.50887E-02   -0.25693E-01  1760   0.265E-01    0.586E+00
DAV:  42    -0.168829662431E+04   -0.32996E-01   -0.21928E-01  1744   0.270E-01    0.601E+00
DAV:  43    -0.168830909404E+04   -0.12470E-01   -0.20957E-01  1784   0.252E-01    0.632E+00
DAV:  44    -0.168829170657E+04    0.17387E-01   -0.21044E-01  1752   0.264E-01    0.547E+00
DAV:  45    -0.168831591465E+04   -0.24208E-01   -0.11525E-01  1712   0.250E-01    0.567E+00
DAV:  46    -0.168829117071E+04    0.24744E-01   -0.13031E-01  1744   0.230E-01    0.316E+00
DAV:  47    -0.168832013493E+04   -0.28964E-01   -0.45694E-02  1720   0.189E-01    0.319E+00
DAV:  48    -0.168832344739E+04   -0.33125E-02   -0.35723E-02  1792   0.146E-01    0.383E+00
DAV:  49    -0.168830251478E+04    0.20933E-01   -0.15845E-02  1632   0.119E-01    0.219E+00
DAV:  50    -0.168832216170E+04   -0.19647E-01   -0.15305E-02  1784   0.104E-01    0.226E+00
DAV:  51    -0.168832470122E+04   -0.25395E-02   -0.14414E-02  1776   0.105E-01    0.180E+00
DAV:  52    -0.168833227373E+04   -0.75725E-02   -0.61120E-03  1744   0.885E-02    0.124E+00
DAV:  53    -0.168833647233E+04   -0.41986E-02   -0.47469E-03  1744   0.633E-02    0.124E+00
DAV:  54    -0.168833703231E+04   -0.55998E-03   -0.26927E-03  1792   0.508E-02    0.930E-01
DAV:  55    -0.168834124453E+04   -0.42122E-02   -0.33978E-03  1704   0.523E-02    0.819E-01
DAV:  56    -0.168834580209E+04   -0.45576E-02   -0.93807E-03  1744   0.633E-02    0.162E+00
DAV:  57    -0.168834135544E+04    0.44467E-02   -0.80898E-03  1696   0.723E-02    0.631E-01
DAV:  58    -0.168834800917E+04   -0.66537E-02   -0.14618E-03  1648   0.462E-02    0.538E-01
DAV:  59    -0.168834975501E+04   -0.17458E-02   -0.75928E-04  1720   0.299E-02    0.486E-01
DAV:  60    -0.168835154149E+04   -0.17865E-02   -0.53005E-04  1624   0.229E-02
   1 F= -.16883515E+04 E0= -.16881031E+04  d E =-.168835E+04
       N       E                     dE             d eps       ncg     rms          rms(c)
DAV:   1    -0.124099408287E+04    0.44736E+03   -0.19868E+04  1760   0.159E+02    0.478E+02
DAV:   2    -0.150683959597E+04   -0.26585E+03   -0.24420E+03  1968   0.532E+01    0.356E+02
DAV:   3    -0.221818932204E+04   -0.71135E+03   -0.31198E+03  2112   0.810E+01    0.457E+02
DAV:   4    -0.152211706402E+04    0.69607E+03   -0.13472E+03  2104   0.576E+01    0.934E+01
DAV:   5    -0.152712630635E+04   -0.50092E+01   -0.60650E+02  1864   0.229E+01    0.136E+02
DAV:   6    -0.151411170298E+04    0.13015E+02   -0.29003E+01  1880   0.660E+00    0.117E+02
DAV:   7    -0.150886271409E+04    0.52490E+01   -0.63896E+00  1872   0.272E+00    0.115E+02
DAV:   8    -0.150717819765E+04    0.16845E+01   -0.23837E+01  2224   0.554E+00    0.111E+02
DAV:   9    -0.150255881134E+04    0.46194E+01   -0.35456E+01  1944   0.562E+00    0.905E+01
DAV:  10    -0.148620297109E+04    0.16356E+02   -0.10427E+01  1968   0.576E+00    0.661E+01
DAV:  11    -0.146695258529E+04    0.19250E+02   -0.14240E+01  1992   0.672E+00    0.621E+01
DAV:  12    -0.145559539140E+04    0.11357E+02   -0.14146E+01  2000   0.648E+00    0.198E+02
DAV:  13    -0.145641012079E+04   -0.81473E+00   -0.42983E+00  1784   0.266E+00    0.209E+02
DAV:  14    -0.145941128703E+04   -0.30012E+01   -0.13023E+00  2128   0.171E+00    0.214E+02
DAV:  15    -0.146668864456E+04   -0.72774E+01   -0.16893E+00  2216   0.274E+00    0.224E+02
DAV:  16    -0.146684990611E+04   -0.16126E+00   -0.63523E-01  1720   0.895E-01    0.224E+02
DAV:  17    -0.146778731384E+04   -0.93741E+00   -0.52034E-02  2368   0.491E-01    0.226E+02
DAV:  18    -0.146675123427E+04    0.10361E+01   -0.25878E-02  2336   0.441E-01    0.224E+02
DAV:  19    -0.147230054955E+04   -0.55493E+01   -0.56206E-01  2640   0.210E+00    0.230E+02
DAV:  20    -0.147241852976E+04   -0.11798E+00   -0.28190E-01  1728   0.554E-01    0.230E+02
DAV:  21    -0.146826686229E+04    0.41517E+01   -0.25840E+00  2312   0.219E+00    0.226E+02
DAV:  22    -0.146526197170E+04    0.30049E+01   -0.68785E-01  1784   0.133E+00    0.223E+02
DAV:  23    -0.146995233412E+04   -0.46904E+01   -0.99626E-01  2392   0.216E+00    0.228E+02
DAV:  24    -0.148063891939E+04   -0.10687E+02   -0.30523E+00  2352   0.289E+00    0.236E+02
DAV:  25    -0.147009504520E+04    0.10544E+02   -0.84341E-01  2536   0.272E+00    0.227E+02
DAV:  26    -0.144964702019E+04    0.20448E+02   -0.27031E+01  2536   0.142E+01    0.673E+01
DAV:  27    -0.144573031515E+04    0.39167E+01   -0.35259E+01  1872   0.649E+00    0.612E+01
DAV:  28    -0.141061986832E+04    0.35110E+02   -0.35476E+01  2248   0.102E+01    0.517E+01
DAV:  29    -0.140350901674E+04    0.71109E+01   -0.17679E+01  1808   0.415E+00    0.446E+01
DAV:  30    -0.140668353799E+04   -0.31745E+01   -0.66615E+00  2000   0.243E+00    0.468E+01
DAV:  31    -0.141155500190E+04   -0.48715E+01   -0.46672E+00  2184   0.332E+00    0.202E+02
DAV:  32    -0.140502933095E+04    0.65257E+01   -0.95235E+00  2312   0.643E+00    0.618E+01
DAV:  33    -0.140290133520E+04    0.21280E+01   -0.73317E+00  1792   0.260E+00    0.981E+01
DAV:  34    -0.140122710225E+04    0.16742E+01   -0.13769E+00  1840   0.107E+00    0.576E+01
DAV:  35    -0.139911300466E+04    0.21141E+01   -0.75572E-01  2184   0.128E+00    0.459E+01
DAV:  36    -0.139780924027E+04    0.13038E+01   -0.12667E+00  2000   0.140E+00    0.443E+01
DAV:  37    -0.139705493012E+04    0.75431E+00   -0.11318E+00  1848   0.742E-01    0.447E+01
DAV:  38    -0.139658490281E+04    0.47003E+00   -0.30911E-01  1880   0.460E-01    0.432E+01
DAV:  39    -0.139505810617E+04    0.15268E+01   -0.16982E+00  2632   0.159E+00    0.438E+01
DAV:  40    -0.139349262708E+04    0.15655E+01   -0.59251E-01  1832   0.102E+00    0.431E+01
DAV:  41    -0.139226185007E+04    0.12308E+01   -0.32614E+00  2424   0.180E+00    0.440E+01
DAV:  42    -0.139248065709E+04   -0.21881E+00   -0.28192E+00  1976   0.203E+00    0.433E+01
DAV:  43    -0.139216162936E+04    0.31903E+00   -0.49793E+00  1936   0.176E+00    0.405E+01
DAV:  44    -0.139151793397E+04    0.64370E+00   -0.23973E+00  2096   0.144E+00    0.400E+01
DAV:  45    -0.139177959606E+04   -0.26166E+00   -0.45902E+00  2088   0.164E+00    0.419E+01
DAV:  46    -0.138789536195E+04    0.38842E+01   -0.51691E+00  2336   0.224E+00    0.423E+01
DAV:  47    -0.142302309569E+04   -0.35128E+02   -0.45229E+01  2624   0.128E+01    0.580E+01
DAV:  48    -0.141430385441E+04    0.87192E+01   -0.22270E+01  1824   0.367E+00    0.490E+01
DAV:  49    -0.140738505311E+04    0.69188E+01   -0.64967E+00  2336   0.352E+00    0.470E+01
DAV:  50    -0.140541041868E+04    0.19746E+01   -0.42897E+00  1792   0.148E+00    0.413E+01
DAV:  51    -0.140303723930E+04    0.23732E+01   -0.24785E+00  2456   0.172E+00    0.418E+01
DAV:  52    -0.140337741058E+04   -0.34017E+00   -0.73392E+00  2472   0.297E+00    0.371E+01
DAV:  53    -0.140066273192E+04    0.27147E+01   -0.41176E+00  2088   0.267E+00    0.420E+01
DAV:  54    -0.139941162553E+04    0.12511E+01   -0.16857E+00  1832   0.149E+00    0.444E+01
DAV:  55    -0.139832953136E+04    0.10821E+01   -0.21134E+00  1832   0.944E-01    0.425E+01
DAV:  56    -0.139766587375E+04    0.66366E+00   -0.81238E-01  1768   0.637E-01    0.403E+01
DAV:  57    -0.139200754157E+04    0.56583E+01   -0.75659E+00  2480   0.602E+00    0.442E+01
DAV:  58    -0.139130295864E+04    0.70458E+00   -0.10913E+01  1800   0.264E+00    0.496E+01
DAV:  59    -0.139067054245E+04    0.63242E+00   -0.25412E+00  1880   0.154E+00    0.468E+01
DAV:  60    -0.138989004741E+04    0.78050E+00   -0.55259E+00  1816   0.103E+00
   2 F= -.13898900E+04 E0= -.13897634E+04  d E =0.298461E+03
       N       E                     dE             d eps       ncg     rms          rms(c)
DAV:   1    -0.158583308916E+04   -0.19516E+03   -0.14642E+04  1720   0.137E+02    0.424E+02
DAV:   2    -0.187866710333E+04   -0.29283E+03   -0.16829E+03  1928   0.510E+01    0.226E+02
DAV:   3    -0.202544975251E+04   -0.14678E+03   -0.14879E+03  2000   0.561E+01    0.176E+02
DAV:   4    -0.199995917925E+04    0.25491E+02   -0.76150E+02  1784   0.334E+01    0.118E+02
DAV:   5    -0.185508115976E+04    0.14488E+03   -0.30521E+02  2144   0.269E+01    0.811E+01
DAV:   6    -0.180140622213E+04    0.53675E+02   -0.27637E+02  1856   0.230E+01    0.694E+01
DAV:   7    -0.177209833097E+04    0.29308E+02   -0.16554E+02  1872   0.174E+01    0.671E+01
DAV:   8    -0.175003092077E+04    0.22067E+02   -0.10379E+02  2000   0.162E+01    0.617E+01
DAV:   9    -0.173091205516E+04    0.19119E+02   -0.56691E+01  1784   0.938E+00    0.503E+01
DAV:  10    -0.172176107055E+04    0.91510E+01   -0.59231E+01  1840   0.700E+00    0.432E+01
DAV:  11    -0.171631833548E+04    0.54427E+01   -0.20920E+01  1896   0.588E+00    0.473E+01
DAV:  12    -0.171211474711E+04    0.42036E+01   -0.26752E+01  1856   0.469E+00    0.368E+01
DAV:  13    -0.171057321852E+04    0.15415E+01   -0.17013E+01  1872   0.372E+00    0.428E+01
DAV:  14    -0.171129711137E+04   -0.72389E+00   -0.16707E+01  1920   0.368E+00    0.358E+01
DAV:  15    -0.171019245039E+04    0.11047E+01   -0.77086E+00  1904   0.359E+00    0.377E+01
DAV:  16    -0.170848422360E+04    0.17082E+01   -0.10793E+01  1880   0.327E+00    0.379E+01
DAV:  17    -0.170649495597E+04    0.19893E+01   -0.13300E+01  1968   0.347E+00    0.348E+01
DAV:  18    -0.171009718844E+04   -0.36022E+01   -0.10324E+01  1872   0.296E+00    0.461E+01
DAV:  19    -0.170530495458E+04    0.47922E+01   -0.84890E+00  1888   0.233E+00    0.346E+01
DAV:  20    -0.170360048446E+04    0.17045E+01   -0.66473E+00  1848   0.199E+00    0.294E+01
DAV:  21    -0.170566964322E+04   -0.20692E+01   -0.79404E+00  1936   0.198E+00    0.402E+01
DAV:  22    -0.170241189223E+04    0.32578E+01   -0.18610E+00  1744   0.124E+00    0.291E+01
DAV:  23    -0.170162603676E+04    0.78586E+00   -0.12624E+00  1760   0.837E-01    0.217E+01
DAV:  24    -0.170112224319E+04    0.50379E+00   -0.13542E+00  1816   0.848E-01    0.188E+01
DAV:  25    -0.170213254082E+04   -0.10103E+01   -0.36135E+00  1904   0.103E+00    0.289E+01
DAV:  26    -0.170166838565E+04    0.46416E+00   -0.22297E+00  1848   0.103E+00    0.254E+01
DAV:  27    -0.170119651988E+04    0.47187E+00   -0.17048E+00  1776   0.924E-01    0.178E+01
DAV:  28    -0.170100635203E+04    0.19017E+00   -0.99929E-01  1768   0.728E-01    0.127E+01
DAV:  29    -0.170081582924E+04    0.19052E+00   -0.69590E-01  1752   0.578E-01    0.109E+01
DAV:  30    -0.170092735252E+04   -0.11152E+00   -0.86727E-01  1808   0.512E-01    0.124E+01
DAV:  31    -0.170086205402E+04    0.65299E-01   -0.72454E-01  1792   0.486E-01    0.120E+01
DAV:  32    -0.170076796910E+04    0.94085E-01   -0.56657E-01  1792   0.409E-01    0.109E+01
DAV:  33    -0.170115570048E+04   -0.38773E+00   -0.11689E+00  1920   0.647E-01    0.163E+01
DAV:  34    -0.170078267094E+04    0.37303E+00   -0.82772E-01  1912   0.737E-01    0.121E+01
DAV:  35    -0.170087098183E+04   -0.88311E-01   -0.15116E+00  1816   0.599E-01    0.139E+01
DAV:  36    -0.170075424928E+04    0.11673E+00   -0.88818E-01  1792   0.527E-01    0.123E+01
DAV:  37    -0.170076269211E+04   -0.84428E-02   -0.91701E-01  1752   0.536E-01    0.108E+01
DAV:  38    -0.170063869244E+04    0.12400E+00   -0.86492E-01  1744   0.465E-01    0.769E+00
DAV:  39    -0.170084728368E+04   -0.20859E+00   -0.75187E-01  1784   0.501E-01    0.110E+01
DAV:  40    -0.170070355202E+04    0.14373E+00   -0.69603E-01  1792   0.472E-01    0.906E+00
DAV:  41    -0.170065134112E+04    0.52211E-01   -0.26334E-01  1712   0.335E-01    0.471E+00
DAV:  42    -0.170069015826E+04   -0.38817E-01   -0.55792E-02  1712   0.218E-01    0.323E+00
DAV:  43    -0.170070346368E+04   -0.13305E-01   -0.50096E-02  1792   0.155E-01    0.299E+00
DAV:  44    -0.170074135645E+04   -0.37893E-01   -0.94439E-02  1808   0.202E-01    0.483E+00
DAV:  45    -0.170071229038E+04    0.29066E-01   -0.83364E-02  1728   0.191E-01    0.446E+00
DAV:  46    -0.170069710248E+04    0.15188E-01   -0.49700E-02  1736   0.142E-01    0.336E+00
DAV:  47    -0.170070709183E+04   -0.99893E-02   -0.56937E-02  1824   0.158E-01    0.267E+00
DAV:  48    -0.170072139568E+04   -0.14304E-01   -0.24735E-02  1712   0.149E-01    0.258E+00
DAV:  49    -0.170071678086E+04    0.46148E-02   -0.18310E-02  1704   0.104E-01    0.141E+00
DAV:  50    -0.170072765622E+04   -0.10875E-01   -0.16852E-02  1728   0.894E-02    0.158E+00
DAV:  51    -0.170072561077E+04    0.20454E-02   -0.91765E-03  1672   0.710E-02    0.105E+00
DAV:  52    -0.170073050741E+04   -0.48966E-02   -0.99027E-03  1768   0.706E-02    0.107E+00
DAV:  53    -0.170073324753E+04   -0.27401E-02   -0.91196E-03  1720   0.659E-02    0.128E+00
DAV:  54    -0.170073232065E+04    0.92688E-03   -0.50694E-03  1712   0.609E-02    0.617E-01
DAV:  55    -0.170073652967E+04   -0.42090E-02   -0.35163E-03  1648   0.499E-02    0.669E-01
DAV:  56    -0.170073744163E+04   -0.91196E-03   -0.19116E-03  1640   0.386E-02    0.519E-01
DAV:  57    -0.170073907133E+04   -0.16297E-02   -0.17164E-03  1640   0.339E-02    0.601E-01
DAV:  58    -0.170073971887E+04   -0.64755E-03   -0.14017E-03  1600   0.280E-02    0.410E-01
DAV:  59    -0.170074193193E+04   -0.22131E-02   -0.13120E-03  1584   0.265E-02    0.413E-01
DAV:  60    -0.170074315511E+04   -0.12232E-02   -0.59468E-04  1512   0.223E-02
   3 F= -.17007432E+04 E0= -.17005019E+04  d E =-.123916E+02
       N       E                     dE             d eps       ncg     rms          rms(c)
DAV:   1    -0.170392635728E+04   -0.31844E+01   -0.11923E+02  1568   0.128E+01    0.911E+00
DAV:   2    -0.171537022849E+04   -0.11444E+02   -0.18948E+01  2040   0.540E+00    0.253E+01
DAV:   3    -0.171196927405E+04    0.34010E+01   -0.18828E+01  1912   0.405E+00    0.410E+01
DAV:   4    -0.170683651442E+04    0.51328E+01   -0.76136E+00  1800   0.211E+00    0.333E+01
DAV:   5    -0.170546787707E+04    0.13686E+01   -0.27199E+00  1784   0.141E+00    0.191E+01
DAV:   6    -0.170522973661E+04    0.23814E+00   -0.33766E+00  1768   0.104E+00    0.162E+01
DAV:   7    -0.170509927396E+04    0.13046E+00   -0.17559E+00  1776   0.797E-01    0.164E+01
DAV:   8    -0.170445336732E+04    0.64591E+00   -0.25725E+00  1856   0.911E-01    0.161E+01
DAV:   9    -0.170415972399E+04    0.29364E+00   -0.10769E+00  1864   0.816E-01    0.137E+01
DAV:  10    -0.170519095087E+04   -0.10312E+01   -0.19740E+00  1872   0.101E+00    0.307E+01
DAV:  11    -0.170408991287E+04    0.11010E+01   -0.13945E+00  1760   0.874E-01    0.164E+01
DAV:  12    -0.170420354932E+04   -0.11364E+00   -0.18006E+00  1808   0.799E-01    0.154E+01
DAV:  13    -0.170407353777E+04    0.13001E+00   -0.10129E+00  1744   0.652E-01    0.908E+00
DAV:  14    -0.170423518625E+04   -0.16165E+00   -0.66835E-01  1752   0.519E-01    0.118E+01
DAV:  15    -0.170399941146E+04    0.23577E+00   -0.83779E-01  1720   0.434E-01    0.754E+00
DAV:  16    -0.170403268943E+04   -0.33278E-01   -0.39154E-01  1736   0.363E-01    0.652E+00
DAV:  17    -0.170404177463E+04   -0.90852E-02   -0.38793E-01  1736   0.311E-01    0.697E+00
DAV:  18    -0.170402986664E+04    0.11908E-01   -0.32739E-01  1752   0.329E-01    0.588E+00
DAV:  19    -0.170407472620E+04   -0.44860E-01   -0.25200E-01  1768   0.300E-01    0.766E+00
DAV:  20    -0.170402917816E+04    0.45548E-01   -0.45309E-01  1720   0.294E-01    0.577E+00
DAV:  21    -0.170404679679E+04   -0.17619E-01   -0.17941E-01  1800   0.280E-01    0.583E+00
DAV:  22    -0.170400642400E+04    0.40373E-01   -0.17594E-01  1712   0.249E-01    0.405E+00
DAV:  23    -0.170405835515E+04   -0.51931E-01   -0.16134E-01  1760   0.222E-01    0.613E+00
DAV:  24    -0.170399552485E+04    0.62830E-01   -0.19544E-01  1752   0.234E-01    0.415E+00
DAV:  25    -0.170401992667E+04   -0.24402E-01   -0.80545E-02  1704   0.227E-01    0.359E+00
DAV:  26    -0.170402182139E+04   -0.18947E-02   -0.87512E-02  1728   0.163E-01    0.373E+00
DAV:  27    -0.170400170819E+04    0.20113E-01   -0.33472E-02  1648   0.133E-01    0.200E+00
DAV:  28    -0.170401932180E+04   -0.17614E-01   -0.21761E-02  1696   0.102E-01    0.263E+00
DAV:  29    -0.170401759718E+04    0.17246E-02   -0.46248E-02  1752   0.837E-02    0.295E+00
DAV:  30    -0.170400930291E+04    0.82943E-02   -0.12374E-02  1656   0.906E-02    0.207E+00
DAV:  31    -0.170401593044E+04   -0.66275E-02   -0.63696E-03  1728   0.684E-02    0.219E+00
DAV:  32    -0.170401264739E+04    0.32830E-02   -0.15088E-02  1672   0.551E-02    0.199E+00
DAV:  33    -0.170401042419E+04    0.22232E-02   -0.59604E-03  1576   0.663E-02    0.136E+00
DAV:  34    -0.170401461049E+04   -0.41863E-02   -0.10930E-03  1648   0.382E-02    0.131E+00
DAV:  35    -0.170401472351E+04   -0.11301E-03   -0.63006E-04  1512   0.229E-02    0.115E+00
DAV:  36    -0.170401599925E+04   -0.12757E-02   -0.47969E-04  1344   0.195E-02    0.119E+00
DAV:  37    -0.170401577255E+04    0.22670E-03   -0.99891E-04  1472   0.225E-02    0.107E+00
DAV:  38    -0.170401645316E+04   -0.68061E-03   -0.11439E-03  1720   0.347E-02    0.960E-01
DAV:  39    -0.170401657988E+04   -0.12672E-03   -0.10586E-03  1672   0.307E-02    0.640E-01
DAV:  40    -0.170401797889E+04   -0.13990E-02   -0.78044E-04  1576   0.300E-02    0.522E-01
DAV:  41    -0.170401841645E+04   -0.43756E-03   -0.57291E-04  1648   0.210E-02    0.405E-01
DAV:  42    -0.170401872983E+04   -0.31338E-03   -0.31926E-04  1400   0.204E-02    0.234E-01
DAV:  43    -0.170401915997E+04   -0.43014E-03   -0.14821E-04  1312   0.146E-02    0.207E-01
DAV:  44    -0.170401925857E+04   -0.98605E-04   -0.97651E-05  1264   0.957E-03    0.185E-01
DAV:  45    -0.170401933164E+04   -0.73064E-04   -0.73845E-05  1232   0.932E-03    0.118E-01
DAV:  46    -0.170401947084E+04   -0.13921E-03   -0.10731E-04  1160   0.844E-03    0.860E-02
DAV:  47    -0.170401954521E+04   -0.74372E-04   -0.40903E-05  1064   0.753E-03    0.965E-02
DAV:  48    -0.170401954830E+04   -0.30900E-05   -0.21650E-05  1040   0.522E-03
   4 F= -.17040195E+04 E0= -.17037759E+04  d E =-.156680E+02
       N       E                     dE             d eps       ncg     rms          rms(c)
DAV:   1    -0.170489191285E+04   -0.87237E+00   -0.10533E+02  1568   0.121E+01    0.953E+00
DAV:   2    -0.171697835815E+04   -0.12086E+02   -0.21595E+01  2040   0.549E+00    0.260E+01
DAV:   3    -0.171406611309E+04    0.29122E+01   -0.21828E+01  1928   0.429E+00    0.436E+01
DAV:   4    -0.170790835007E+04    0.61578E+01   -0.10070E+01  1800   0.224E+00    0.325E+01
DAV:   5    -0.170667336979E+04    0.12350E+01   -0.50239E+00  1800   0.158E+00    0.196E+01
DAV:   6    -0.170630437024E+04    0.36900E+00   -0.35686E+00  1752   0.115E+00    0.190E+01
DAV:   7    -0.170588312440E+04    0.42125E+00   -0.17306E+00  1792   0.901E-01    0.173E+01
DAV:   8    -0.170529737604E+04    0.58575E+00   -0.17769E+00  1856   0.921E-01    0.152E+01
DAV:   9    -0.170533300173E+04   -0.35626E-01   -0.20830E+00  1944   0.927E-01    0.152E+01
DAV:  10    -0.170575856590E+04   -0.42556E+00   -0.23340E+00  1896   0.994E-01    0.223E+01
DAV:  11    -0.170553892975E+04    0.21964E+00   -0.35091E+00  1840   0.924E-01    0.218E+01
DAV:  12    -0.170503541626E+04    0.50351E+00   -0.18793E+00  1784   0.805E-01    0.149E+01
DAV:  13    -0.170505208982E+04   -0.16674E-01   -0.15054E+00  1752   0.655E-01    0.105E+01
DAV:  14    -0.170507313743E+04   -0.21048E-01   -0.64075E-01  1696   0.509E-01    0.116E+01
DAV:  15    -0.170489131776E+04    0.18182E+00   -0.56363E-01  1752   0.446E-01    0.731E+00
DAV:  16    -0.170498491764E+04   -0.93600E-01   -0.42275E-01  1760   0.370E-01    0.809E+00
DAV:  17    -0.170489129089E+04    0.93627E-01   -0.20817E-01  1696   0.288E-01    0.509E+00
DAV:  18    -0.170492237745E+04   -0.31087E-01   -0.12726E-01  1752   0.221E-01    0.492E+00
DAV:  19    -0.170500067136E+04   -0.78294E-01   -0.26850E-01  1816   0.256E-01    0.871E+00
DAV:  20    -0.170494388941E+04    0.56782E-01   -0.36511E-01  1808   0.312E-01    0.622E+00
DAV:  21    -0.170501435997E+04   -0.70471E-01   -0.32464E-01  1752   0.303E-01    0.765E+00
DAV:  22    -0.170497377130E+04    0.40589E-01   -0.33981E-01  1752   0.300E-01    0.711E+00
DAV:  23    -0.170493023233E+04    0.43539E-01   -0.20920E-01  1728   0.295E-01    0.541E+00
DAV:  24    -0.170494784436E+04   -0.17612E-01   -0.18471E-01  1744   0.262E-01    0.606E+00
DAV:  25    -0.170489306397E+04    0.54780E-01   -0.10810E-01  1704   0.210E-01    0.356E+00
DAV:  26    -0.170492091113E+04   -0.27847E-01   -0.19529E-02  1648   0.142E-01    0.245E+00
DAV:  27    -0.170493547853E+04   -0.14567E-01   -0.26393E-02  1816   0.103E-01    0.313E+00
DAV:  28    -0.170492951741E+04    0.59611E-02   -0.39982E-02  1736   0.105E-01    0.299E+00
DAV:  29    -0.170493128103E+04   -0.17636E-02   -0.36539E-02  1672   0.107E-01    0.223E+00
DAV:  30    -0.170493407342E+04   -0.27924E-02   -0.21312E-02  1720   0.904E-02    0.173E+00
DAV:  31    -0.170494082814E+04   -0.67547E-02   -0.21382E-02  1816   0.932E-02    0.219E+00
DAV:  32    -0.170493291636E+04    0.79118E-02   -0.13623E-02  1760   0.916E-02    0.114E+00
DAV:  33    -0.170493880225E+04   -0.58859E-02   -0.15445E-02  1712   0.614E-02    0.165E+00
DAV:  34    -0.170493442855E+04    0.43737E-02   -0.12181E-02  1608   0.685E-02    0.113E+00
DAV:  35    -0.170493813419E+04   -0.37056E-02   -0.32077E-03  1680   0.559E-02    0.857E-01
DAV:  36    -0.170493815411E+04   -0.19920E-04   -0.15680E-03  1584   0.424E-02    0.564E-01
DAV:  37    -0.170493900513E+04   -0.85102E-03   -0.87867E-04  1640   0.299E-02    0.529E-01
DAV:  38    -0.170493874537E+04    0.25976E-03   -0.55887E-04  1608   0.244E-02    0.260E-01
DAV:  39    -0.170493925381E+04   -0.50844E-03   -0.35619E-04  1392   0.205E-02    0.221E-01
DAV:  40    -0.170493931128E+04   -0.57473E-04   -0.23780E-04  1304   0.141E-02    0.166E-01
DAV:  41    -0.170493939761E+04   -0.86331E-04   -0.13080E-04  1248   0.120E-02    0.160E-01
DAV:  42    -0.170493942398E+04   -0.26373E-04   -0.84924E-05  1200   0.108E-02    0.183E-01
DAV:  43    -0.170493944375E+04   -0.19764E-04   -0.10376E-04  1248   0.118E-02    0.133E-01
DAV:  44    -0.170493945333E+04   -0.95816E-05   -0.10707E-04  1144   0.101E-02    0.108E-01
DAV:  45    -0.170493949219E+04   -0.38864E-04   -0.50818E-05  1152   0.759E-03    0.123E-01
DAV:  46    -0.170493949823E+04   -0.60387E-05   -0.35206E-05  1120   0.669E-03
   5 F= -.17049395E+04 E0= -.17046945E+04  d E =-.165880E+02
       N       E                     dE             d eps       ncg     rms          rms(c)
DAV:   1    -0.170495759678E+04   -0.18105E-01   -0.20173E+00  1568   0.167E+00    0.114E+00
DAV:   2    -0.170601144735E+04   -0.10539E+01   -0.58993E-01  1944   0.641E-01    0.279E+01
DAV:   3    -0.170456276210E+04    0.14487E+01   -0.86448E-01  1784   0.599E-01    0.716E+00
DAV:   4    -0.170489350559E+04   -0.33074E+00   -0.30586E-01  1648   0.427E-01    0.332E+00
DAV:   5    -0.170503526286E+04   -0.14176E+00   -0.23377E-01  1792   0.304E-01    0.720E+00
DAV:   6    -0.170495343775E+04    0.81825E-01   -0.41665E-01  1816   0.300E-01    0.566E+00
DAV:   7    -0.170495830908E+04   -0.48713E-02   -0.16861E-01  1712   0.265E-01    0.483E+00
DAV:   8    -0.170494711281E+04    0.11196E-01   -0.14779E-01  1656   0.216E-01    0.352E+00
DAV:   9    -0.170495401800E+04   -0.69052E-02   -0.83271E-02  1664   0.173E-01    0.256E+00
DAV:  10    -0.170495258223E+04    0.14358E-02   -0.24434E-02  1704   0.127E-01    0.124E+00
DAV:  11    -0.170496877898E+04   -0.16197E-01   -0.59391E-02  1768   0.969E-02    0.332E+00
DAV:  12    -0.170494152928E+04    0.27250E-01   -0.51692E-02  1640   0.120E-01    0.143E+00
DAV:  13    -0.170495567787E+04   -0.14149E-01   -0.20702E-02  1600   0.869E-02    0.127E+00
DAV:  14    -0.170495685451E+04   -0.11766E-02   -0.13625E-02  1560   0.765E-02    0.927E-01
DAV:  15    -0.170495922457E+04   -0.23701E-02   -0.12441E-02  1736   0.567E-02    0.130E+00
DAV:  16    -0.170495679651E+04    0.24281E-02   -0.10600E-02  1696   0.623E-02    0.106E+00
DAV:  17    -0.170495787376E+04   -0.10773E-02   -0.58544E-03  1600   0.576E-02    0.897E-01
DAV:  18    -0.170495702923E+04    0.84453E-03   -0.50518E-03  1568   0.398E-02    0.484E-01
DAV:  19    -0.170495836484E+04   -0.13356E-02   -0.14838E-03  1496   0.340E-02    0.398E-01
DAV:  20    -0.170495855407E+04   -0.18923E-03   -0.12079E-03  1512   0.233E-02    0.451E-01
DAV:  21    -0.170495839740E+04    0.15667E-03   -0.19650E-03  1472   0.231E-02    0.418E-01
DAV:  22    -0.170495839195E+04    0.54541E-05   -0.85353E-04  1456   0.237E-02    0.272E-01
DAV:  23    -0.170495843101E+04   -0.39060E-04   -0.54076E-04  1280   0.150E-02    0.226E-01
DAV:  24    -0.170495845636E+04   -0.25352E-04   -0.40944E-04  1152   0.125E-02    0.185E-01
DAV:  25    -0.170495860059E+04   -0.14424E-03   -0.42727E-04  1208   0.121E-02    0.307E-01
DAV:  26    -0.170495827608E+04    0.32452E-03   -0.36956E-04  1088   0.115E-02    0.821E-02
DAV:  27    -0.170495855937E+04   -0.28330E-03   -0.73727E-05  1056   0.943E-03    0.867E-02
DAV:  28    -0.170495856193E+04   -0.25530E-05   -0.93815E-05  1064   0.549E-03
   6 F= -.17049586E+04 E0= -.17047138E+04  d E =-.166070E+02
       N       E                     dE             d eps       ncg     rms          rms(c)
DAV:   1    -0.170223876374E+04    0.27198E+01   -0.25691E+03  1568   0.672E+01    0.289E+01
DAV:   2    -0.178641768293E+04   -0.84179E+02   -0.15362E+02  1856   0.168E+01    0.799E+01
DAV:   3    -0.172156393710E+04    0.64854E+02   -0.27313E+01  1888   0.740E+00    0.494E+01
DAV:   4    -0.171504808940E+04    0.65158E+01   -0.23238E+01  1832   0.494E+00    0.392E+01
DAV:   5    -0.171466850054E+04    0.37959E+00   -0.25055E+01  1912   0.434E+00    0.363E+01
DAV:   6    -0.171439208154E+04    0.27642E+00   -0.13841E+01  1896   0.361E+00    0.379E+01
DAV:   7    -0.170995275633E+04    0.44393E+01   -0.87216E+00  1896   0.298E+00    0.323E+01
DAV:   8    -0.170649212797E+04    0.34606E+01   -0.57106E+00  1904   0.254E+00    0.248E+01
DAV:   9    -0.170663949622E+04   -0.14737E+00   -0.10945E+01  1880   0.195E+00    0.242E+01
DAV:  10    -0.170850875503E+04   -0.18693E+01   -0.12802E+01  1880   0.187E+00    0.332E+01
DAV:  11    -0.170691569956E+04    0.15931E+01   -0.28946E+00  1856   0.161E+00    0.222E+01
DAV:  12    -0.170635289383E+04    0.56281E+00   -0.42269E+00  1856   0.146E+00    0.191E+01
DAV:  13    -0.170576293310E+04    0.58996E+00   -0.32286E+00  1832   0.131E+00    0.142E+01
DAV:  14    -0.170602764621E+04   -0.26471E+00   -0.39689E+00  1928   0.122E+00    0.216E+01
DAV:  15    -0.170517320901E+04    0.85444E+00   -0.31050E+00  1920   0.115E+00    0.155E+01
DAV:  16    -0.170522040912E+04   -0.47200E-01   -0.29060E+00  1784   0.940E-01    0.132E+01
DAV:  17    -0.170534272867E+04   -0.12232E+00   -0.25578E+00  1856   0.959E-01    0.183E+01
DAV:  18    -0.170539630392E+04   -0.53575E-01   -0.35676E+00  1832   0.870E-01    0.213E+01
DAV:  19    -0.170493350728E+04    0.46280E+00   -0.20834E+00  1824   0.821E-01    0.135E+01
DAV:  20    -0.170497579158E+04   -0.42284E-01   -0.18218E+00  1840   0.795E-01    0.146E+01
DAV:  21    -0.170496787487E+04    0.79167E-02   -0.19629E+00  1792   0.691E-01    0.158E+01
DAV:  22    -0.170481249026E+04    0.15538E+00   -0.82756E-01  1792   0.625E-01    0.112E+01
DAV:  23    -0.170486594815E+04   -0.53458E-01   -0.81030E-01  1776   0.489E-01    0.132E+01
DAV:  24    -0.170473990368E+04    0.12604E+00   -0.58792E-01  1768   0.374E-01    0.760E+00
DAV:  25    -0.170478025886E+04   -0.40355E-01   -0.30464E-01  1760   0.350E-01    0.779E+00
DAV:  26    -0.170479699101E+04   -0.16732E-01   -0.33633E-01  1744   0.323E-01    0.660E+00
DAV:  27    -0.170478772890E+04    0.92621E-02   -0.19497E-01  1760   0.275E-01    0.540E+00
DAV:  28    -0.170482537229E+04   -0.37643E-01   -0.32004E-01  1824   0.306E-01    0.663E+00
DAV:  29    -0.170482189884E+04    0.34735E-02   -0.34141E-01  1776   0.331E-01    0.702E+00
DAV:  30    -0.170478852243E+04    0.33376E-01   -0.49177E-01  1768   0.272E-01    0.581E+00
DAV:  31    -0.170476841127E+04    0.20111E-01   -0.12836E-01  1752   0.239E-01    0.293E+00
DAV:  32    -0.170480385862E+04   -0.35447E-01   -0.96129E-02  1744   0.189E-01    0.388E+00
DAV:  33    -0.170480463669E+04   -0.77807E-03   -0.15916E-01  1792   0.185E-01    0.428E+00
DAV:  34    -0.170477417430E+04    0.30462E-01   -0.76727E-02  1784   0.180E-01    0.225E+00
DAV:  35    -0.170479341242E+04   -0.19238E-01   -0.41757E-02  1728   0.145E-01    0.182E+00
DAV:  36    -0.170479838579E+04   -0.49734E-02   -0.20503E-02  1736   0.119E-01    0.155E+00
DAV:  37    -0.170479795807E+04    0.42772E-03   -0.10707E-02  1736   0.922E-02    0.123E+00
DAV:  38    -0.170479807855E+04   -0.12048E-03   -0.93276E-03  1792   0.700E-02    0.843E-01
DAV:  39    -0.170480109825E+04   -0.30197E-02   -0.69618E-03  1792   0.621E-02    0.930E-01
DAV:  40    -0.170479982800E+04    0.12703E-02   -0.29752E-03  1744   0.476E-02    0.642E-01
DAV:  41    -0.170480161607E+04   -0.17881E-02   -0.23036E-03  1832   0.453E-02    0.704E-01
DAV:  42    -0.170480126703E+04    0.34905E-03   -0.16621E-03  1792   0.363E-02    0.536E-01
DAV:  43    -0.170480162295E+04   -0.35593E-03   -0.10787E-03  1704   0.311E-02    0.385E-01
DAV:  44    -0.170480231650E+04   -0.69355E-03   -0.11190E-03  1696   0.245E-02    0.386E-01
DAV:  45    -0.170480251598E+04   -0.19948E-03   -0.63954E-04  1600   0.236E-02    0.259E-01
DAV:  46    -0.170480280282E+04   -0.28684E-03   -0.31554E-04  1448   0.175E-02    0.220E-01
DAV:  47    -0.170480299019E+04   -0.18738E-03   -0.22923E-04  1432   0.170E-02    0.221E-01
DAV:  48    -0.170480300826E+04   -0.18066E-04   -0.14511E-04  1392   0.124E-02    0.140E-01
DAV:  49    -0.170480327439E+04   -0.26613E-03   -0.12391E-04  1256   0.102E-02    0.140E-01
DAV:  50    -0.170480341164E+04   -0.13725E-03   -0.64222E-05  1256   0.870E-03    0.119E-01
DAV:  51    -0.170480360373E+04   -0.19209E-03   -0.84442E-05  1208   0.914E-03    0.999E-02
DAV:  52    -0.170480369179E+04   -0.88055E-04   -0.94053E-05  1160   0.800E-03    0.103E-01
DAV:  53    -0.170480388670E+04   -0.19491E-03   -0.78002E-05  1136   0.681E-03    0.609E-02
DAV:  54    -0.170480405941E+04   -0.17270E-03   -0.21636E-05  1104   0.564E-03    0.689E-02
DAV:  55    -0.170480418230E+04   -0.12289E-03   -0.34168E-05  1112   0.469E-03    0.613E-02
DAV:  56    -0.170480428882E+04   -0.10653E-03   -0.25818E-05  1088   0.415E-03    0.443E-02
DAV:  57    -0.170480443225E+04   -0.14342E-03   -0.25235E-05  1112   0.434E-03    0.367E-02
DAV:  58    -0.170480451535E+04   -0.83100E-04   -0.15617E-05  1080   0.361E-03    0.304E-02
DAV:  59    -0.170480461624E+04   -0.10090E-03   -0.14334E-05  1104   0.302E-03    0.292E-02
DAV:  60    -0.170480470559E+04   -0.89345E-04   -0.11815E-05  1096   0.303E-03
   7 F= -.17048047E+04 E0= -.17045927E+04  d E =0.153856E+00
       N       E                     dE             d eps       ncg     rms          rms(c)
DAV:   1    -0.171164363067E+04   -0.68390E+01   -0.70239E+02  1568   0.350E+01    0.415E+01
DAV:   2    -0.182031934201E+04   -0.10868E+03   -0.25757E+02  2128   0.230E+01    0.582E+01
DAV:   3    -0.178069703077E+04    0.39622E+02   -0.12759E+02  2288   0.162E+01    0.596E+01
DAV:   4    -0.175347367947E+04    0.27223E+02   -0.45393E+01  1800   0.842E+00    0.486E+01
DAV:   5    -0.174236282347E+04    0.11111E+02   -0.21055E+01  1784   0.472E+00    0.403E+01
DAV:   6    -0.173788020833E+04    0.44826E+01   -0.54628E+00  1896   0.329E+00    0.339E+01
DAV:   7    -0.173328179811E+04    0.45984E+01   -0.11183E+01  2064   0.410E+00    0.345E+01
DAV:   8    -0.172524725558E+04    0.80345E+01   -0.86402E+00  1856   0.368E+00    0.308E+01
DAV:   9    -0.172157751883E+04    0.36697E+01   -0.73637E+00  1848   0.233E+00    0.255E+01
DAV:  10    -0.171888791588E+04    0.26896E+01   -0.47255E+00  1840   0.188E+00    0.238E+01
DAV:  11    -0.171654656918E+04    0.23413E+01   -0.28028E+00  1856   0.168E+00    0.234E+01
DAV:  12    -0.171470499760E+04    0.18416E+01   -0.33974E+00  1792   0.133E+00    0.187E+01
DAV:  13    -0.171328577635E+04    0.14192E+01   -0.18730E+00  1952   0.136E+00    0.189E+01
DAV:  14    -0.171216653923E+04    0.11192E+01   -0.23552E+00  1856   0.114E+00    0.189E+01
DAV:  15    -0.171105054322E+04    0.11160E+01   -0.13603E+00  1896   0.112E+00    0.159E+01
DAV:  16    -0.171071625189E+04    0.33429E+00   -0.16092E+00  1784   0.812E-01    0.106E+01
DAV:  17    -0.171119767217E+04   -0.48142E+00   -0.20753E+00  1872   0.832E-01    0.171E+01
DAV:  18    -0.171070955672E+04    0.48812E+00   -0.97409E-01  1832   0.762E-01    0.146E+01
DAV:  19    -0.171065069854E+04    0.58858E-01   -0.16293E+00  1824   0.639E-01    0.978E+00
DAV:  20    -0.171083501098E+04   -0.18431E+00   -0.11760E+00  1800   0.554E-01    0.116E+01
DAV:  21    -0.171068317619E+04    0.15183E+00   -0.14846E+00  1824   0.606E-01    0.110E+01
DAV:  22    -0.171076266913E+04   -0.79493E-01   -0.79514E-01  1864   0.654E-01    0.146E+01
DAV:  23    -0.171061735591E+04    0.14531E+00   -0.11194E+00  1816   0.689E-01    0.152E+01
DAV:  24    -0.171059432489E+04    0.23031E-01   -0.11510E+00  1784   0.631E-01    0.117E+01
DAV:  25    -0.171071809904E+04   -0.12377E+00   -0.14957E+00  1816   0.606E-01    0.956E+00
DAV:  26    -0.171074023158E+04   -0.22133E-01   -0.88228E-01  1808   0.624E-01    0.121E+01
DAV:  27    -0.171081174142E+04   -0.71510E-01   -0.13710E+00  1880   0.687E-01    0.206E+01
DAV:  28    -0.171086063978E+04   -0.48898E-01   -0.46879E-01  1704   0.554E-01    0.257E+01
DAV:  29    -0.171043572231E+04    0.42492E+00   -0.13718E-01  1640   0.327E-01    0.219E+01
DAV:  30    -0.171019729514E+04    0.23843E+00   -0.16965E-01  1808   0.170E-01    0.142E+01
DAV:  31    -0.171050134236E+04   -0.30405E+00   -0.59455E-01  1872   0.347E-01    0.187E+01
DAV:  32    -0.171053525484E+04   -0.33912E-01   -0.33691E-01  1800   0.391E-01    0.203E+01
DAV:  33    -0.171022468895E+04    0.31057E+00   -0.31727E-01  1672   0.303E-01    0.125E+01
DAV:  34    -0.171037122964E+04   -0.14654E+00   -0.35450E-01  1712   0.264E-01    0.119E+01
DAV:  35    -0.171034463180E+04    0.26598E-01   -0.15481E-01  1712   0.306E-01    0.681E+00
DAV:  36    -0.171039450570E+04   -0.49874E-01   -0.58984E-02  1784   0.225E-01    0.494E+00
DAV:  37    -0.171044812265E+04   -0.53617E-01   -0.60695E-02  1768   0.185E-01    0.600E+00
DAV:  38    -0.171040453730E+04    0.43585E-01   -0.72349E-02  1768   0.159E-01    0.271E+00
DAV:  39    -0.171043981931E+04   -0.35282E-01   -0.25297E-02  1728   0.143E-01    0.191E+00
DAV:  40    -0.171045005597E+04   -0.10237E-01   -0.99841E-03  1800   0.114E-01    0.194E+00
DAV:  41    -0.171044871943E+04    0.13365E-02   -0.12062E-02  1800   0.835E-02    0.143E+00
DAV:  42    -0.171045103860E+04   -0.23192E-02   -0.71133E-03  1744   0.777E-02    0.110E+00
DAV:  43    -0.171045350765E+04   -0.24691E-02   -0.63600E-03  1736   0.746E-02    0.107E+00
DAV:  44    -0.171045448692E+04   -0.97927E-03   -0.55735E-03  1768   0.559E-02    0.112E+00
DAV:  45    -0.171045284003E+04    0.16469E-02   -0.34702E-03  1680   0.541E-02    0.586E-01
DAV:  46    -0.171045472828E+04   -0.18882E-02   -0.14505E-03  1776   0.375E-02    0.607E-01
DAV:  47    -0.171046214010E+04   -0.74118E-02   -0.43749E-03  1864   0.580E-02    0.207E+00
DAV:  48    -0.171044987643E+04    0.12264E-01   -0.27863E-03  1584   0.605E-02    0.128E+00
DAV:  49    -0.171045058001E+04   -0.70358E-03   -0.12344E-03  1640   0.332E-02    0.511E-01
DAV:  50    -0.171045505001E+04   -0.44700E-02   -0.12241E-03  1616   0.390E-02    0.568E-01
DAV:  51    -0.171045558926E+04   -0.53924E-03   -0.53521E-04  1584   0.310E-02    0.387E-01
DAV:  52    -0.171045581318E+04   -0.22393E-03   -0.62859E-04  1536   0.196E-02    0.485E-01
DAV:  53    -0.171045517284E+04    0.64035E-03   -0.37932E-04  1360   0.176E-02    0.270E-01
DAV:  54    -0.171045575470E+04   -0.58186E-03   -0.19072E-04  1312   0.130E-02    0.202E-01
DAV:  55    -0.171045614974E+04   -0.39505E-03   -0.21799E-04  1360   0.126E-02    0.179E-01
DAV:  56    -0.171045622698E+04   -0.77242E-04   -0.10221E-04  1264   0.101E-02    0.100E-01
DAV:  57    -0.171045653972E+04   -0.31274E-03   -0.32910E-04  1304   0.116E-02    0.264E-01
DAV:  58    -0.171045623726E+04    0.30246E-03   -0.33293E-04  1176   0.113E-02    0.101E-01
DAV:  59    -0.171045650691E+04   -0.26964E-03   -0.69507E-05  1064   0.798E-03    0.828E-02
DAV:  60    -0.171045664354E+04   -0.13663E-03   -0.50838E-05  1144   0.547E-03
   8 F= -.17104566E+04 E0= -.17102276E+04  d E =-.549808E+01
       N       E                     dE             d eps       ncg     rms          rms(c)
DAV:   1    -0.171549327646E+04   -0.50368E+01   -0.18339E+03  1568   0.576E+01    0.370E+01
DAV:   2    -0.182170136133E+04   -0.10621E+03   -0.18426E+02  2192   0.178E+01    0.788E+01
DAV:   3    -0.177130675015E+04    0.50395E+02   -0.11155E+02  1920   0.111E+01    0.466E+01
DAV:   4    -0.175048385121E+04    0.20823E+02   -0.34892E+01  2032   0.930E+00    0.532E+01
DAV:   5    -0.173732661552E+04    0.13157E+02   -0.17619E+01  1840   0.506E+00    0.351E+01
DAV:   6    -0.173221822686E+04    0.51084E+01   -0.13849E+01  1976   0.332E+00    0.315E+01
DAV:   7    -0.172959585155E+04    0.26224E+01   -0.79382E+00  1832   0.252E+00    0.320E+01
DAV:   8    -0.172838759111E+04    0.12083E+01   -0.59729E+00  1896   0.235E+00    0.447E+01
DAV:   9    -0.172516434755E+04    0.32232E+01   -0.69696E+00  1960   0.273E+00    0.372E+01
DAV:  10    -0.172214105948E+04    0.30233E+01   -0.46327E+00  1856   0.226E+00    0.265E+01
DAV:  11    -0.172062380637E+04    0.15173E+01   -0.47178E+00  1840   0.172E+00    0.266E+01
DAV:  12    -0.171991129048E+04    0.71252E+00   -0.23781E+00  1832   0.123E+00    0.268E+01
DAV:  13    -0.171922556302E+04    0.68573E+00   -0.18859E+00  1864   0.107E+00    0.231E+01
DAV:  14    -0.171851092607E+04    0.71464E+00   -0.18550E+00  1816   0.101E+00    0.212E+01
DAV:  15    -0.171816029333E+04    0.35063E+00   -0.18324E+00  1800   0.885E-01    0.214E+01
DAV:  16    -0.171722171880E+04    0.93857E+00   -0.56867E-01  1944   0.938E-01    0.192E+01
DAV:  17    -0.171689306882E+04    0.32865E+00   -0.20565E+00  1832   0.853E-01    0.201E+01
DAV:  18    -0.171612970577E+04    0.76336E+00   -0.25187E+00  1912   0.116E+00    0.186E+01
DAV:  19    -0.171576736862E+04    0.36234E+00   -0.28576E+00  1816   0.108E+00    0.178E+01
DAV:  20    -0.171589089509E+04   -0.12353E+00   -0.28884E+00  1904   0.117E+00    0.201E+01
DAV:  21    -0.171533658810E+04    0.55431E+00   -0.18334E+00  1840   0.915E-01    0.133E+01
DAV:  22    -0.171527679306E+04    0.59795E-01   -0.14228E+00  1856   0.626E-01    0.924E+00
DAV:  23    -0.171547601192E+04   -0.19922E+00   -0.67705E-01  1832   0.546E-01    0.125E+01
DAV:  24    -0.171528415579E+04    0.19186E+00   -0.77406E-01  1816   0.551E-01    0.119E+01
DAV:  25    -0.171534830858E+04   -0.64153E-01   -0.15708E+00  1840   0.600E-01    0.134E+01
DAV:  26    -0.171519070298E+04    0.15761E+00   -0.10086E+00  1792   0.579E-01    0.126E+01
DAV:  27    -0.171533955307E+04   -0.14885E+00   -0.13425E+00  1824   0.604E-01    0.166E+01
DAV:  28    -0.171509294496E+04    0.24661E+00   -0.13585E+00  1856   0.598E-01    0.113E+01
DAV:  29    -0.171512501178E+04   -0.32067E-01   -0.62719E-01  1824   0.597E-01    0.978E+00
DAV:  30    -0.171509999978E+04    0.25012E-01   -0.91003E-01  1784   0.443E-01    0.892E+00
DAV:  31    -0.171511744364E+04   -0.17444E-01   -0.80371E-01  1824   0.447E-01    0.937E+00
DAV:  32    -0.171513709043E+04   -0.19647E-01   -0.39098E-01  1768   0.405E-01    0.105E+01
DAV:  33    -0.171502526594E+04    0.11182E+00   -0.39199E-01  1744   0.337E-01    0.515E+00
DAV:  34    -0.171506982731E+04   -0.44561E-01   -0.79161E-02  1816   0.265E-01    0.458E+00
DAV:  35    -0.171509206076E+04   -0.22233E-01   -0.73198E-02  1800   0.195E-01    0.534E+00
DAV:  36    -0.171513513035E+04   -0.43070E-01   -0.74828E-02  1800   0.188E-01    0.836E+00
DAV:  37    -0.171511620326E+04    0.18927E-01   -0.14639E-01  1824   0.195E-01    0.101E+01
DAV:  38    -0.171502671393E+04    0.89489E-01   -0.18318E-01  1776   0.193E-01    0.472E+00
DAV:  39    -0.171506693709E+04   -0.40223E-01   -0.10625E-01  1824   0.223E-01    0.260E+00
DAV:  40    -0.171508882680E+04   -0.21890E-01   -0.15780E-02  1704   0.150E-01    0.197E+00
DAV:  41    -0.171509145982E+04   -0.26330E-02   -0.84836E-03  1784   0.876E-02    0.164E+00
DAV:  42    -0.171509361668E+04   -0.21569E-02   -0.78210E-03  1760   0.732E-02    0.146E+00
DAV:  43    -0.171509809146E+04   -0.44748E-02   -0.13915E-02  1816   0.705E-02    0.188E+00
DAV:  44    -0.171509149902E+04    0.65924E-02   -0.71011E-03  1736   0.738E-02    0.103E+00
DAV:  45    -0.171509782322E+04   -0.63242E-02   -0.37741E-03  1752   0.592E-02    0.913E-01
DAV:  46    -0.171509982510E+04   -0.20019E-02   -0.20527E-03  1800   0.487E-02    0.875E-01
DAV:  47    -0.171510132133E+04   -0.14962E-02   -0.32249E-03  1864   0.526E-02    0.103E+00
DAV:  48    -0.171509996219E+04    0.13591E-02   -0.21751E-03  1688   0.392E-02    0.948E-01
DAV:  49    -0.171509975892E+04    0.20327E-03   -0.98357E-04  1704   0.343E-02    0.497E-01
DAV:  50    -0.171510153242E+04   -0.17735E-02   -0.44276E-04  1696   0.252E-02    0.528E-01
DAV:  51    -0.171510241330E+04   -0.88088E-03   -0.25194E-04  1424   0.170E-02    0.687E-01
DAV:  52    -0.171510137325E+04    0.10401E-02   -0.53560E-04  1512   0.217E-02    0.399E-01
DAV:  53    -0.171510184159E+04   -0.46834E-03   -0.22239E-04  1424   0.159E-02    0.311E-01
DAV:  54    -0.171510222105E+04   -0.37945E-03   -0.24828E-04  1320   0.131E-02    0.306E-01
DAV:  55    -0.171510243126E+04   -0.21021E-03   -0.91973E-05  1200   0.100E-02    0.335E-01
DAV:  56    -0.171510239387E+04    0.37394E-04   -0.59135E-05  1152   0.745E-03    0.268E-01
DAV:  57    -0.171510244202E+04   -0.48149E-04   -0.15005E-04  1240   0.100E-02    0.140E-01
DAV:  58    -0.171510262739E+04   -0.18538E-03   -0.61287E-05  1128   0.828E-03    0.127E-01
DAV:  59    -0.171510265852E+04   -0.31131E-04   -0.23097E-05  1016   0.440E-03    0.104E-01
DAV:  60    -0.171510271306E+04   -0.54538E-04   -0.19320E-05  1048   0.340E-03
   9 F= -.17151027E+04 E0= -.17148763E+04  d E =-.464607E+01
       N       E                     dE             d eps       ncg     rms          rms(c)
DAV:   1    -0.171510945876E+04   -0.68002E-02   -0.26731E+00  1568   0.219E+00    0.135E+00
DAV:   2    -0.171744735512E+04   -0.23379E+01   -0.10215E+00  2032   0.863E-01    0.312E+01
DAV:   3    -0.171477661320E+04    0.26707E+01   -0.34251E-01  1848   0.672E-01    0.655E+00
DAV:   4    -0.171506202705E+04   -0.28541E+00   -0.15614E-01  1664   0.384E-01    0.323E+00
DAV:   5    -0.171512529780E+04   -0.63271E-01   -0.15338E-01  1816   0.265E-01    0.440E+00
DAV:   6    -0.171512325086E+04    0.20469E-02   -0.21530E-01  1744   0.233E-01    0.490E+00
DAV:   7    -0.171510615643E+04    0.17094E-01   -0.12335E-01  1752   0.224E-01    0.385E+00
DAV:   8    -0.171509836256E+04    0.77939E-02   -0.95462E-02  1704   0.194E-01    0.224E+00
DAV:   9    -0.171510402837E+04   -0.56658E-02   -0.44253E-02  1712   0.121E-01    0.161E+00
DAV:  10    -0.171510727050E+04   -0.32421E-02   -0.28822E-02  1648   0.918E-02    0.168E+00
DAV:  11    -0.171510618015E+04    0.10903E-02   -0.24332E-02  1640   0.798E-02    0.123E+00
DAV:  12    -0.171510789971E+04   -0.17196E-02   -0.11651E-02  1672   0.701E-02    0.836E-01
DAV:  13    -0.171510976014E+04   -0.18604E-02   -0.10932E-02  1728   0.513E-02    0.105E+00
DAV:  14    -0.171510914879E+04    0.61135E-03   -0.10299E-02  1624   0.608E-02    0.102E+00
DAV:  15    -0.171510787562E+04    0.12732E-02   -0.12647E-02  1648   0.498E-02    0.827E-01
DAV:  16    -0.171510904292E+04   -0.11673E-02   -0.70106E-03  1560   0.546E-02    0.759E-01
DAV:  17    -0.171510841256E+04    0.63036E-03   -0.51673E-03  1568   0.365E-02    0.461E-01
DAV:  18    -0.171510963357E+04   -0.12210E-02   -0.25297E-03  1504   0.331E-02    0.483E-01
DAV:  19    -0.171510928523E+04    0.34835E-03   -0.18626E-03  1496   0.262E-02    0.355E-01
DAV:  20    -0.171510954109E+04   -0.25587E-03   -0.18629E-03  1488   0.220E-02    0.429E-01
DAV:  21    -0.171510928393E+04    0.25716E-03   -0.13664E-03  1488   0.228E-02    0.281E-01
DAV:  22    -0.171510962997E+04   -0.34604E-03   -0.67420E-04  1432   0.203E-02    0.240E-01
DAV:  23    -0.171510961292E+04    0.17053E-04   -0.58101E-04  1208   0.120E-02    0.181E-01
DAV:  24    -0.171510965517E+04   -0.42244E-04   -0.25752E-04  1240   0.120E-02    0.162E-01
DAV:  25    -0.171510962476E+04    0.30410E-04   -0.26013E-04  1064   0.831E-03    0.141E-01
DAV:  26    -0.171510966525E+04   -0.40492E-04   -0.20835E-04  1072   0.941E-03    0.117E-01
DAV:  27    -0.171510968177E+04   -0.16525E-04   -0.16488E-04  1040   0.714E-03    0.138E-01
DAV:  28    -0.171510964507E+04    0.36700E-04   -0.83147E-05  1016   0.567E-03    0.349E-02
DAV:  29    -0.171510969757E+04   -0.52503E-04   -0.37347E-05  1024   0.437E-03    0.848E-02
DAV:  30    -0.171510967501E+04    0.22562E-04   -0.70323E-05   936   0.375E-03    0.638E-02
DAV:  31    -0.171510968769E+04   -0.12676E-04   -0.32687E-05   936   0.406E-03    0.464E-02
DAV:  32    -0.171510969315E+04   -0.54580E-05   -0.14823E-05   984   0.264E-03
  10 F= -.17151097E+04 E0= -.17148830E+04  d E =-.465305E+01
       N       E                     dE             d eps       ncg     rms          rms(c)
DAV:   1    -0.171726141678E+04   -0.21517E+01   -0.11172E+03  1568   0.451E+01    0.106E+01
DAV:   2    -0.173795394270E+04   -0.20693E+02   -0.41606E+01  1808   0.759E+00    0.627E+01
DAV:   3    -0.172213944498E+04    0.15814E+02   -0.68751E+00  1824   0.310E+00    0.347E+01
DAV:   4    -0.172157208693E+04    0.56736E+00   -0.12206E+01  1912   0.224E+00    0.193E+01
DAV:   5    -0.172151331615E+04    0.58771E-01   -0.59559E+00  2016   0.245E+00    0.235E+01
DAV:   6    -0.172075454753E+04    0.75877E+00   -0.54068E+00  1984   0.188E+00    0.300E+01
DAV:   7    -0.171966766056E+04    0.10869E+01   -0.52155E+00  1840   0.131E+00    0.192E+01
DAV:   8    -0.171985303886E+04   -0.18538E+00   -0.46180E+00  1888   0.124E+00    0.196E+01
DAV:   9    -0.171951137153E+04    0.34167E+00   -0.21412E+00  1872   0.114E+00    0.192E+01
DAV:  10    -0.171961936103E+04   -0.10799E+00   -0.54385E+00  1768   0.873E-01    0.194E+01
DAV:  11    -0.171936252881E+04    0.25683E+00   -0.38682E+00  1816   0.791E-01    0.150E+01
DAV:  12    -0.171913807509E+04    0.22445E+00   -0.17209E+00  1760   0.686E-01    0.113E+01
DAV:  13    -0.171906642451E+04    0.71651E-01   -0.65055E-01  1800   0.596E-01    0.882E+00
DAV:  14    -0.171906308765E+04    0.33369E-02   -0.51095E-01  1840   0.528E-01    0.950E+00
DAV:  15    -0.171901031947E+04    0.52768E-01   -0.10767E+00  1872   0.529E-01    0.101E+01
DAV:  16    -0.171899900012E+04    0.11319E-01   -0.87381E-01  1832   0.524E-01    0.935E+00
DAV:  17    -0.171906721727E+04   -0.68217E-01   -0.99846E-01  1816   0.573E-01    0.127E+01
DAV:  18    -0.171881918270E+04    0.24803E+00   -0.98839E-01  1784   0.456E-01    0.703E+00
DAV:  19    -0.171899709839E+04   -0.17792E+00   -0.54063E-01  1816   0.447E-01    0.924E+00
DAV:  20    -0.171892283270E+04    0.74266E-01   -0.76127E-01  1800   0.414E-01    0.908E+00
DAV:  21    -0.171887262033E+04    0.50212E-01   -0.39696E-01  1768   0.370E-01    0.766E+00
DAV:  22    -0.171889706738E+04   -0.24447E-01   -0.33904E-01  1776   0.344E-01    0.671E+00
DAV:  23    -0.171888757206E+04    0.94953E-02   -0.27225E-01  1768   0.314E-01    0.625E+00
DAV:  24    -0.171887575640E+04    0.11816E-01   -0.21869E-01  1760   0.258E-01    0.617E+00
DAV:  25    -0.171887180904E+04    0.39474E-02   -0.18752E-01  1728   0.225E-01    0.494E+00
DAV:  26    -0.171886890206E+04    0.29070E-02   -0.83338E-02  1728   0.210E-01    0.404E+00
DAV:  27    -0.171887177963E+04   -0.28776E-02   -0.81206E-02  1752   0.168E-01    0.299E+00
DAV:  28    -0.171889565413E+04   -0.23875E-01   -0.91591E-02  1792   0.165E-01    0.409E+00
DAV:  29    -0.171888188618E+04    0.13768E-01   -0.10966E-01  1768   0.180E-01    0.384E+00
DAV:  30    -0.171887965478E+04    0.22314E-02   -0.11576E-01  1752   0.178E-01    0.335E+00
DAV:  31    -0.171887323856E+04    0.64162E-02   -0.61256E-02  1712   0.147E-01    0.220E+00
DAV:  32    -0.171888385505E+04   -0.10616E-01   -0.26919E-02  1664   0.123E-01    0.170E+00
DAV:  33    -0.171888898612E+04   -0.51311E-02   -0.21116E-02  1688   0.803E-02    0.162E+00
DAV:  34    -0.171888932426E+04   -0.33814E-03   -0.17949E-02  1736   0.780E-02    0.127E+00
DAV:  35    -0.171889288081E+04   -0.35565E-02   -0.12129E-02  1744   0.732E-02    0.127E+00
DAV:  36    -0.171889081526E+04    0.20656E-02   -0.62577E-03  1696   0.548E-02    0.606E-01
DAV:  37    -0.171889375964E+04   -0.29444E-02   -0.25862E-03  1704   0.456E-02    0.583E-01
DAV:  38    -0.171889343733E+04    0.32232E-03   -0.75649E-04  1728   0.319E-02    0.474E-01
DAV:  39    -0.171889347002E+04   -0.32698E-04   -0.53451E-04  1648   0.222E-02    0.383E-01
DAV:  40    -0.171889360050E+04   -0.13048E-03   -0.38235E-04  1432   0.184E-02    0.327E-01
DAV:  41    -0.171889382053E+04   -0.22003E-03   -0.27347E-04  1432   0.166E-02    0.266E-01
DAV:  42    -0.171889406047E+04   -0.23994E-03   -0.19691E-04  1296   0.150E-02    0.166E-01
DAV:  43    -0.171889432471E+04   -0.26424E-03   -0.13704E-04  1328   0.129E-02    0.131E-01
DAV:  44    -0.171889446914E+04   -0.14443E-03   -0.85639E-05  1248   0.107E-02    0.118E-01
DAV:  45    -0.171889451261E+04   -0.43478E-04   -0.47537E-05  1208   0.837E-03    0.929E-02
DAV:  46    -0.171889455385E+04   -0.41236E-04   -0.31380E-05  1096   0.692E-03    0.614E-02
DAV:  47    -0.171889460368E+04   -0.49828E-04   -0.37006E-05  1096   0.588E-03    0.693E-02
DAV:  48    -0.171889462015E+04   -0.16473E-04   -0.19452E-05  1048   0.486E-03    0.518E-02
DAV:  49    -0.171889464909E+04   -0.28936E-04   -0.11325E-05  1048   0.370E-03    0.387E-02
DAV:  50    -0.171889468113E+04   -0.32042E-04   -0.12160E-05  1048   0.282E-03    0.356E-02
DAV:  51    -0.171889471719E+04   -0.36063E-04   -0.63522E-06  1048   0.269E-03    0.272E-02
DAV:  52    -0.171889473196E+04   -0.14769E-04   -0.66041E-06  1056   0.229E-03    0.290E-02
DAV:  53    -0.171889476106E+04   -0.29095E-04   -0.50506E-06  1032   0.210E-03    0.224E-02
DAV:  54    -0.171889477500E+04   -0.13947E-04   -0.32293E-06  1048   0.150E-03    0.234E-02
DAV:  55    -0.171889480199E+04   -0.26988E-04   -0.28778E-06  1032   0.161E-03    0.203E-02
DAV:  56    -0.171889482473E+04   -0.22742E-04   -0.24442E-06  1056   0.158E-03    0.187E-02
DAV:  57    -0.171889483120E+04   -0.64705E-05   -0.20186E-06  1064   0.147E-03
  11 F= -.17188948E+04 E0= -.17186734E+04  d E =-.378514E+01
       N       E                     dE             d eps       ncg     rms          rms(c)
DAV:   1    -0.171897597939E+04   -0.81155E-01   -0.21707E+02  1568   0.199E+01    0.482E+00
DAV:   2    -0.172545083126E+04   -0.64749E+01   -0.10254E+01  1832   0.344E+00    0.471E+01
DAV:   3    -0.171943913462E+04    0.60117E+01   -0.47254E+00  1840   0.156E+00    0.205E+01
DAV:   4    -0.171983831666E+04   -0.39918E+00   -0.51157E+00  1872   0.115E+00    0.136E+01
DAV:   5    -0.171978700774E+04    0.51309E-01   -0.34907E+00  1944   0.113E+00    0.144E+01
DAV:   6    -0.171977584890E+04    0.11159E-01   -0.24930E+00  1952   0.954E-01    0.162E+01
DAV:   7    -0.171965995209E+04    0.11590E+00   -0.26219E+00  1832   0.714E-01    0.155E+01
DAV:   8    -0.171950168291E+04    0.15827E+00   -0.17544E+00  1856   0.722E-01    0.138E+01
DAV:   9    -0.171932354613E+04    0.17814E+00   -0.14002E+00  1832   0.574E-01    0.101E+01
DAV:  10    -0.171936924405E+04   -0.45698E-01   -0.15077E+00  1792   0.513E-01    0.787E+00
DAV:  11    -0.171933889338E+04    0.30351E-01   -0.53730E-01  1832   0.465E-01    0.777E+00
DAV:  12    -0.171929390026E+04    0.44993E-01   -0.52953E-01  1832   0.372E-01    0.649E+00
DAV:  13    -0.171928022797E+04    0.13672E-01   -0.46258E-01  1776   0.326E-01    0.622E+00
DAV:  14    -0.171926334617E+04    0.16882E-01   -0.30533E-01  1712   0.271E-01    0.459E+00
DAV:  15    -0.171928082010E+04   -0.17474E-01   -0.20484E-01  1784   0.262E-01    0.497E+00
DAV:  16    -0.171926982961E+04    0.10990E-01   -0.26069E-01  1784   0.223E-01    0.459E+00
DAV:  17    -0.171928645704E+04   -0.16627E-01   -0.18710E-01  1808   0.267E-01    0.574E+00
DAV:  18    -0.171924235624E+04    0.44101E-01   -0.26204E-01  1752   0.244E-01    0.390E+00
DAV:  19    -0.171928744263E+04   -0.45086E-01   -0.20311E-01  1792   0.246E-01    0.457E+00
DAV:  20    -0.171927431071E+04    0.13132E-01   -0.17944E-01  1776   0.223E-01    0.467E+00
DAV:  21    -0.171924012081E+04    0.34190E-01   -0.12107E-01  1728   0.197E-01    0.245E+00
DAV:  22    -0.171927421837E+04   -0.34098E-01   -0.95492E-02  1768   0.180E-01    0.349E+00
DAV:  23    -0.171926180219E+04    0.12416E-01   -0.80161E-02  1704   0.151E-01    0.341E+00
DAV:  24    -0.171925188971E+04    0.99125E-02   -0.65453E-02  1736   0.154E-01    0.195E+00
DAV:  25    -0.171926653907E+04   -0.14649E-01   -0.32674E-02  1720   0.103E-01    0.242E+00
DAV:  26    -0.171926036416E+04    0.61749E-02   -0.41088E-02  1728   0.953E-02    0.202E+00
DAV:  27    -0.171925892480E+04    0.14394E-02   -0.15738E-02  1672   0.845E-02    0.113E+00
DAV:  28    -0.171926531550E+04   -0.63907E-02   -0.82605E-03  1720   0.656E-02    0.109E+00
DAV:  29    -0.171926667188E+04   -0.13564E-02   -0.14669E-02  1704   0.546E-02    0.140E+00
DAV:  30    -0.171926204570E+04    0.46262E-02   -0.81528E-03  1680   0.603E-02    0.523E-01
DAV:  31    -0.171926715241E+04   -0.51067E-02   -0.30503E-03  1576   0.444E-02    0.687E-01
DAV:  32    -0.171926698128E+04    0.17113E-03   -0.24272E-03  1664   0.341E-02    0.358E-01
DAV:  33    -0.171926750470E+04   -0.52342E-03   -0.11781E-03  1608   0.287E-02    0.409E-01
DAV:  34    -0.171926739582E+04    0.10888E-03   -0.16654E-03  1512   0.205E-02    0.425E-01
DAV:  35    -0.171926714465E+04    0.25117E-03   -0.80619E-04  1480   0.227E-02    0.203E-01
DAV:  36    -0.171926748888E+04   -0.34423E-03   -0.19421E-04  1448   0.169E-02    0.172E-01
DAV:  37    -0.171926750914E+04   -0.20255E-04   -0.15090E-04  1216   0.118E-02    0.130E-01
DAV:  38    -0.171926755230E+04   -0.43162E-04   -0.70604E-05  1216   0.958E-03    0.119E-01
DAV:  39    -0.171926759648E+04   -0.44183E-04   -0.49731E-05  1184   0.757E-03    0.993E-02
DAV:  40    -0.171926761507E+04   -0.18589E-04   -0.32683E-05  1128   0.634E-03    0.703E-02
DAV:  41    -0.171926764103E+04   -0.25960E-04   -0.12526E-05  1064   0.445E-03    0.666E-02
DAV:  42    -0.171926764958E+04   -0.85540E-05   -0.76940E-06  1024   0.349E-03
  12 F= -.17192676E+04 E0= -.17190493E+04  d E =-.415796E+01
       N       E                     dE             d eps       ncg     rms          rms(c)
DAV:   1    -0.172101137428E+04   -0.17437E+01   -0.83806E+02  1568   0.389E+01    0.140E+01
DAV:   2    -0.177538861074E+04   -0.54377E+02   -0.43655E+01  1936   0.956E+00    0.744E+01
DAV:   3    -0.172896424039E+04    0.46424E+02   -0.23219E+01  1856   0.492E+00    0.390E+01
DAV:   4    -0.172223380694E+04    0.67304E+01   -0.88833E+00  1864   0.255E+00    0.213E+01
DAV:   5    -0.172372360518E+04   -0.14898E+01   -0.66664E+00  1864   0.191E+00    0.280E+01
DAV:   6    -0.172421870133E+04   -0.49510E+00   -0.63462E+00  1872   0.176E+00    0.284E+01
DAV:   7    -0.172344126627E+04    0.77744E+00   -0.42637E+00  1864   0.144E+00    0.232E+01
DAV:   8    -0.172264893910E+04    0.79233E+00   -0.43341E+00  1856   0.131E+00    0.176E+01
DAV:   9    -0.172241344998E+04    0.23549E+00   -0.30058E+00  1808   0.100E+00    0.145E+01
DAV:  10    -0.172233173201E+04    0.81718E-01   -0.31257E+00  1848   0.899E-01    0.135E+01
DAV:  11    -0.172202303976E+04    0.30869E+00   -0.20969E+00  1832   0.781E-01    0.111E+01
DAV:  12    -0.172203823851E+04   -0.15199E-01   -0.19218E+00  1872   0.689E-01    0.135E+01
DAV:  13    -0.172186671849E+04    0.17152E+00   -0.19411E+00  1856   0.605E-01    0.125E+01
DAV:  14    -0.172178309866E+04    0.83620E-01   -0.15466E+00  1816   0.564E-01    0.107E+01
DAV:  15    -0.172177369612E+04    0.94025E-02   -0.14450E+00  1808   0.517E-01    0.103E+01
DAV:  16    -0.172168324899E+04    0.90447E-01   -0.10067E+00  1824   0.498E-01    0.783E+00
DAV:  17    -0.172176045368E+04   -0.77205E-01   -0.83003E-01  1856   0.459E-01    0.882E+00
DAV:  18    -0.172172015550E+04    0.40298E-01   -0.81090E-01  1832   0.456E-01    0.988E+00
DAV:  19    -0.172168901113E+04    0.31144E-01   -0.72266E-01  1728   0.354E-01    0.920E+00
DAV:  20    -0.172173802459E+04   -0.49013E-01   -0.52735E-01  1744   0.312E-01    0.133E+01
DAV:  21    -0.172156520164E+04    0.17282E+00   -0.57252E-01  1736   0.312E-01    0.340E+00
DAV:  22    -0.172170675280E+04   -0.14155E+00   -0.26289E-01  1800   0.315E-01    0.603E+00
DAV:  23    -0.172169198465E+04    0.14768E-01   -0.31785E-01  1832   0.329E-01    0.645E+00
DAV:  24    -0.172166343766E+04    0.28547E-01   -0.26540E-01  1784   0.338E-01    0.475E+00
DAV:  25    -0.172168095475E+04   -0.17517E-01   -0.18749E-01  1760   0.238E-01    0.506E+00
DAV:  26    -0.172164803013E+04    0.32925E-01   -0.15511E-01  1768   0.219E-01    0.293E+00
DAV:  27    -0.172168564158E+04   -0.37611E-01   -0.12587E-01  1800   0.210E-01    0.354E+00
DAV:  28    -0.172167561709E+04    0.10024E-01   -0.15557E-01  1752   0.176E-01    0.350E+00
DAV:  29    -0.172166837360E+04    0.72435E-02   -0.51757E-02  1752   0.167E-01    0.291E+00
DAV:  30    -0.172166810336E+04    0.27025E-03   -0.37566E-02  1744   0.136E-01    0.159E+00
DAV:  31    -0.172167282035E+04   -0.47170E-02   -0.10831E-02  1688   0.753E-02    0.126E+00
DAV:  32    -0.172167537707E+04   -0.25567E-02   -0.99568E-03  1680   0.546E-02    0.146E+00
DAV:  33    -0.172167241834E+04    0.29587E-02   -0.88349E-03  1712   0.515E-02    0.103E+00
DAV:  34    -0.172167609292E+04   -0.36746E-02   -0.70501E-03  1672   0.520E-02    0.999E-01
DAV:  35    -0.172167722239E+04   -0.11295E-02   -0.68438E-03  1752   0.543E-02    0.936E-01
DAV:  36    -0.172167706167E+04    0.16072E-03   -0.31420E-03  1776   0.447E-02    0.610E-01
DAV:  37    -0.172167823746E+04   -0.11758E-02   -0.87950E-04  1680   0.289E-02    0.488E-01
DAV:  38    -0.172167862377E+04   -0.38631E-03   -0.49425E-04  1640   0.218E-02    0.388E-01
DAV:  39    -0.172167893216E+04   -0.30839E-03   -0.34598E-04  1608   0.204E-02    0.247E-01
DAV:  40    -0.172167925293E+04   -0.32077E-03   -0.37824E-04  1440   0.171E-02    0.176E-01
DAV:  41    -0.172167939951E+04   -0.14658E-03   -0.18128E-04  1368   0.149E-02    0.186E-01
DAV:  42    -0.172167942761E+04   -0.28101E-04   -0.75021E-05  1312   0.107E-02    0.174E-01
DAV:  43    -0.172167944602E+04   -0.18407E-04   -0.51195E-05  1160   0.786E-03    0.154E-01
DAV:  44    -0.172167949358E+04   -0.47567E-04   -0.49454E-05  1128   0.701E-03    0.987E-02
DAV:  45    -0.172167958594E+04   -0.92358E-04   -0.35484E-05  1096   0.595E-03    0.590E-02
DAV:  46    -0.172167964027E+04   -0.54334E-04   -0.13204E-05  1064   0.449E-03    0.534E-02
DAV:  47    -0.172167968530E+04   -0.45024E-04   -0.16498E-05  1040   0.391E-03    0.481E-02
DAV:  48    -0.172167973144E+04   -0.46143E-04   -0.19540E-05  1032   0.365E-03    0.330E-02
DAV:  49    -0.172167975583E+04   -0.24388E-04   -0.10999E-05  1056   0.269E-03    0.255E-02
DAV:  50    -0.172167978791E+04   -0.32080E-04   -0.45417E-06  1024   0.202E-03    0.222E-02
DAV:  51    -0.172167980996E+04   -0.22053E-04   -0.34024E-06  1048   0.169E-03    0.217E-02
DAV:  52    -0.172167983158E+04   -0.21622E-04   -0.46089E-06  1024   0.167E-03    0.156E-02
DAV:  53    -0.172167985983E+04   -0.28248E-04   -0.40541E-06  1040   0.163E-03    0.169E-02
DAV:  54    -0.172167988537E+04   -0.25536E-04   -0.23554E-06  1040   0.126E-03    0.126E-02
DAV:  55    -0.172167990284E+04   -0.17468E-04   -0.12985E-06  1056   0.111E-03    0.103E-02
DAV:  56    -0.172167992191E+04   -0.19075E-04   -0.14258E-06  1032   0.943E-04    0.108E-02
DAV:  57    -0.172167992609E+04   -0.41797E-05   -0.13020E-06  1048   0.853E-04
  13 F= -.17216799E+04 E0= -.17214721E+04  d E =-.241228E+01
       N       E                     dE             d eps       ncg     rms          rms(c)
DAV:   1    -0.172174995684E+04   -0.70035E-01   -0.43797E+01  1568   0.891E+00    0.418E+00
DAV:   2    -0.173339368772E+04   -0.11644E+02   -0.80854E+00  1960   0.273E+00    0.585E+01
DAV:   3    -0.172196762033E+04    0.11426E+02   -0.50666E+00  1824   0.178E+00    0.265E+01
DAV:   4    -0.172145065668E+04    0.51696E+00   -0.29757E+00  1816   0.100E+00    0.128E+01
DAV:   5    -0.172171491401E+04   -0.26426E+00   -0.15779E+00  1760   0.722E-01    0.654E+00
DAV:   6    -0.172225314386E+04   -0.53823E+00   -0.13582E+00  1920   0.647E-01    0.189E+01
DAV:   7    -0.172180638353E+04    0.44676E+00   -0.19787E+00  1760   0.570E-01    0.127E+01
DAV:   8    -0.172178772704E+04    0.18656E-01   -0.97127E-01  1744   0.464E-01    0.766E+00
DAV:   9    -0.172180364512E+04   -0.15918E-01   -0.50319E-01  1752   0.395E-01    0.649E+00
DAV:  10    -0.172178351300E+04    0.20132E-01   -0.50837E-01  1824   0.320E-01    0.501E+00
DAV:  11    -0.172180917407E+04   -0.25661E-01   -0.32465E-01  1792   0.266E-01    0.705E+00
DAV:  12    -0.172178550487E+04    0.23669E-01   -0.44959E-01  1752   0.254E-01    0.647E+00
DAV:  13    -0.172175005713E+04    0.35448E-01   -0.28051E-01  1704   0.208E-01    0.319E+00
DAV:  14    -0.172177230191E+04   -0.22245E-01   -0.69896E-02  1736   0.177E-01    0.369E+00
DAV:  15    -0.172175179290E+04    0.20509E-01   -0.67127E-02  1760   0.148E-01    0.246E+00
DAV:  16    -0.172176988629E+04   -0.18093E-01   -0.92459E-02  1752   0.137E-01    0.311E+00
DAV:  17    -0.172175166935E+04    0.18217E-01   -0.80623E-02  1736   0.132E-01    0.193E+00
DAV:  18    -0.172177069330E+04   -0.19024E-01   -0.69948E-02  1776   0.134E-01    0.299E+00
DAV:  19    -0.172175530122E+04    0.15392E-01   -0.57962E-02  1752   0.124E-01    0.157E+00
DAV:  20    -0.172176999220E+04   -0.14691E-01   -0.53905E-02  1752   0.112E-01    0.254E+00
DAV:  21    -0.172175557491E+04    0.14417E-01   -0.46796E-02  1760   0.114E-01    0.146E+00
DAV:  22    -0.172176466284E+04   -0.90879E-02   -0.28195E-02  1712   0.104E-01    0.177E+00
DAV:  23    -0.172175811816E+04    0.65447E-02   -0.17803E-02  1656   0.753E-02    0.996E-01
DAV:  24    -0.172176842239E+04   -0.10304E-01   -0.13656E-02  1704   0.743E-02    0.177E+00
DAV:  25    -0.172176002455E+04    0.83978E-02   -0.13054E-02  1712   0.628E-02    0.805E-01
DAV:  26    -0.172176506265E+04   -0.50381E-02   -0.61116E-03  1720   0.567E-02    0.846E-01
DAV:  27    -0.172176450729E+04    0.55536E-03   -0.46552E-03  1680   0.421E-02    0.665E-01
DAV:  28    -0.172176478486E+04   -0.27756E-03   -0.40827E-03  1640   0.337E-02    0.749E-01
DAV:  29    -0.172176407515E+04    0.70971E-03   -0.33403E-03  1520   0.320E-02    0.401E-01
DAV:  30    -0.172176507384E+04   -0.99870E-03   -0.84202E-04  1504   0.278E-02    0.286E-01
DAV:  31    -0.172176546153E+04   -0.38768E-03   -0.88641E-04  1560   0.182E-02    0.415E-01
DAV:  32    -0.172176520030E+04    0.26123E-03   -0.12141E-03  1440   0.177E-02    0.244E-01
DAV:  33    -0.172176548013E+04   -0.27983E-03   -0.39288E-04  1400   0.161E-02    0.199E-01
DAV:  34    -0.172176549154E+04   -0.11413E-04   -0.19722E-04  1184   0.103E-02    0.159E-01
DAV:  35    -0.172176553904E+04   -0.47496E-04   -0.97310E-05  1120   0.952E-03    0.131E-01
DAV:  36    -0.172176554526E+04   -0.62245E-05   -0.40143E-05  1096   0.693E-03
  14 F= -.17217655E+04 E0= -.17215601E+04  d E =-.249790E+01
       N       E                     dE             d eps       ncg     rms          rms(c)
DAV:   1    -0.172345256208E+04   -0.16870E+01   -0.61723E+02  1568   0.333E+01    0.129E+01
DAV:   2    -0.177801277989E+04   -0.54560E+02   -0.37788E+01  1928   0.924E+00    0.745E+01
DAV:   3    -0.173195259337E+04    0.46060E+02   -0.19023E+01  1840   0.488E+00    0.413E+01
DAV:   4    -0.172385412062E+04    0.80985E+01   -0.83243E+00  1872   0.239E+00    0.179E+01
DAV:   5    -0.172463874729E+04   -0.78463E+00   -0.49870E+00  1840   0.154E+00    0.215E+01
DAV:   6    -0.172423624559E+04    0.40250E+00   -0.54120E+00  1848   0.134E+00    0.174E+01
DAV:   7    -0.172453551473E+04   -0.29927E+00   -0.30739E+00  1840   0.123E+00    0.231E+01
DAV:   8    -0.172427530582E+04    0.26021E+00   -0.44221E+00  1768   0.825E-01    0.173E+01
DAV:   9    -0.172417823682E+04    0.97069E-01   -0.35971E+00  1872   0.905E-01    0.132E+01
DAV:  10    -0.172406208674E+04    0.11615E+00   -0.28497E+00  1816   0.754E-01    0.104E+01
DAV:  11    -0.172400798651E+04    0.54100E-01   -0.15183E+00  1824   0.709E-01    0.105E+01
DAV:  12    -0.172398068518E+04    0.27301E-01   -0.19056E+00  1808   0.620E-01    0.109E+01
DAV:  13    -0.172390834414E+04    0.72341E-01   -0.17879E+00  1872   0.649E-01    0.987E+00
DAV:  14    -0.172380237781E+04    0.10597E+00   -0.10411E+00  1824   0.589E-01    0.861E+00
DAV:  15    -0.172378330510E+04    0.19073E-01   -0.62886E-01  1824   0.444E-01    0.870E+00
DAV:  16    -0.172376605259E+04    0.17253E-01   -0.67244E-01  1816   0.435E-01    0.905E+00
DAV:  17    -0.172371414375E+04    0.51909E-01   -0.77061E-01  1752   0.392E-01    0.575E+00
DAV:  18    -0.172381813794E+04   -0.10399E+00   -0.52689E-01  1792   0.364E-01    0.862E+00
DAV:  19    -0.172367827809E+04    0.13986E+00   -0.36040E-01  1784   0.346E-01    0.476E+00
DAV:  20    -0.172373284028E+04   -0.54562E-01   -0.21064E-01  1736   0.261E-01    0.531E+00
DAV:  21    -0.172372978193E+04    0.30584E-02   -0.35991E-01  1808   0.253E-01    0.579E+00
DAV:  22    -0.172370397315E+04    0.25809E-01   -0.19070E-01  1736   0.261E-01    0.461E+00
DAV:  23    -0.172373946190E+04   -0.35489E-01   -0.19734E-01  1784   0.229E-01    0.550E+00
DAV:  24    -0.172370021021E+04    0.39252E-01   -0.18755E-01  1744   0.237E-01    0.428E+00
DAV:  25    -0.172369760452E+04    0.26057E-02   -0.10105E-01  1784   0.218E-01    0.239E+00
DAV:  26    -0.172372092863E+04   -0.23324E-01   -0.71049E-02  1736   0.148E-01    0.284E+00
DAV:  27    -0.172370344219E+04    0.17486E-01   -0.39727E-02  1768   0.128E-01    0.156E+00
DAV:  28    -0.172371534863E+04   -0.11906E-01   -0.30092E-02  1712   0.881E-02    0.177E+00
DAV:  29    -0.172371278254E+04    0.25661E-02   -0.14493E-02  1712   0.776E-02    0.107E+00
DAV:  30    -0.172371578225E+04   -0.29997E-02   -0.62216E-03  1816   0.686E-02    0.835E-01
DAV:  31    -0.172371774451E+04   -0.19623E-02   -0.12966E-02  1784   0.531E-02    0.138E+00
DAV:  32    -0.172371431441E+04    0.34301E-02   -0.15361E-02  1728   0.629E-02    0.855E-01
DAV:  33    -0.172371665015E+04   -0.23357E-02   -0.40821E-03  1752   0.578E-02    0.455E-01
DAV:  34    -0.172371812125E+04   -0.14711E-02   -0.47263E-03  1600   0.323E-02    0.707E-01
DAV:  35    -0.172371719443E+04    0.92682E-03   -0.38993E-03  1616   0.351E-02    0.389E-01
DAV:  36    -0.172371775382E+04   -0.55940E-03   -0.75654E-04  1624   0.269E-02    0.195E-01
DAV:  37    -0.172371812135E+04   -0.36753E-03   -0.39818E-04  1440   0.195E-02    0.179E-01
DAV:  38    -0.172371830142E+04   -0.18007E-03   -0.34771E-04  1384   0.152E-02    0.209E-01
DAV:  39    -0.172371831525E+04   -0.13829E-04   -0.21499E-04  1304   0.116E-02    0.170E-01
DAV:  40    -0.172371846943E+04   -0.15418E-03   -0.76252E-05  1240   0.991E-03    0.145E-01
DAV:  41    -0.172371858446E+04   -0.11502E-03   -0.57984E-05  1264   0.860E-03    0.114E-01
DAV:  42    -0.172371866311E+04   -0.78655E-04   -0.37114E-05  1176   0.745E-03    0.774E-02
DAV:  43    -0.172371875552E+04   -0.92408E-04   -0.30679E-05  1064   0.559E-03    0.648E-02
DAV:  44    -0.172371884612E+04   -0.90605E-04   -0.29019E-05  1064   0.425E-03    0.553E-02
DAV:  45    -0.172371891880E+04   -0.72671E-04   -0.20541E-05  1072   0.395E-03    0.563E-02
DAV:  46    -0.172371898618E+04   -0.67381E-04   -0.13893E-05  1064   0.316E-03    0.405E-02
DAV:  47    -0.172371902709E+04   -0.40913E-04   -0.13404E-05  1064   0.322E-03    0.351E-02
DAV:  48    -0.172371909039E+04   -0.63301E-04   -0.73691E-06  1040   0.245E-03    0.275E-02
DAV:  49    -0.172371911428E+04   -0.23894E-04   -0.25854E-06  1056   0.183E-03    0.233E-02
DAV:  50    -0.172371916501E+04   -0.50725E-04   -0.28432E-06  1040   0.165E-03    0.172E-02
DAV:  51    -0.172371922039E+04   -0.55380E-04   -0.29435E-06  1056   0.158E-03    0.168E-02
DAV:  52    -0.172371922796E+04   -0.75700E-05   -0.59209E-06  1048   0.182E-03
  15 F= -.17237192E+04 E0= -.17235173E+04  d E =-.195368E+01
       N       E                     dE             d eps       ncg     rms          rms(c)
DAV:   1    -0.172396223216E+04   -0.24301E+00   -0.21608E+02  1568   0.197E+01    0.853E+00
DAV:   2    -0.175680375755E+04   -0.32842E+02   -0.19809E+01  1912   0.586E+00    0.716E+01
DAV:   3    -0.172697679346E+04    0.29827E+02   -0.18421E+01  1816   0.337E+00    0.358E+01
DAV:   4    -0.172349946260E+04    0.34773E+01   -0.40334E+00  1800   0.157E+00    0.123E+01
DAV:   5    -0.172458022070E+04   -0.10808E+01   -0.29412E+00  1760   0.109E+00    0.200E+01
DAV:   6    -0.172464978671E+04   -0.69566E-01   -0.33106E+00  1824   0.833E-01    0.212E+01
DAV:   7    -0.172415734216E+04    0.49244E+00   -0.20906E+00  1784   0.729E-01    0.108E+01
DAV:   8    -0.172423991335E+04   -0.82571E-01   -0.17489E+00  1816   0.720E-01    0.900E+00
DAV:   9    -0.172431513188E+04   -0.75219E-01   -0.14411E+00  1896   0.649E-01    0.110E+01
DAV:  10    -0.172421910494E+04    0.96027E-01   -0.21414E+00  1848   0.623E-01    0.104E+01
DAV:  11    -0.172408145340E+04    0.13765E+00   -0.10968E+00  1776   0.493E-01    0.783E+00
DAV:  12    -0.172409593774E+04   -0.14484E-01   -0.82924E-01  1784   0.448E-01    0.778E+00
DAV:  13    -0.172404442370E+04    0.51514E-01   -0.59025E-01  1760   0.365E-01    0.578E+00
DAV:  14    -0.172407149233E+04   -0.27069E-01   -0.32084E-01  1848   0.354E-01    0.651E+00
DAV:  15    -0.172401021630E+04    0.61276E-01   -0.23200E-01  1704   0.273E-01    0.463E+00
DAV:  16    -0.172406499215E+04   -0.54776E-01   -0.28209E-01  1768   0.241E-01    0.538E+00
DAV:  17    -0.172402555128E+04    0.39441E-01   -0.23669E-01  1776   0.248E-01    0.378E+00
DAV:  18    -0.172403398834E+04   -0.84371E-02   -0.11376E-01  1760   0.207E-01    0.280E+00
DAV:  19    -0.172406402326E+04   -0.30035E-01   -0.15009E-01  1864   0.198E-01    0.463E+00
DAV:  20    -0.172404471826E+04    0.19305E-01   -0.25055E-01  1840   0.228E-01    0.510E+00
DAV:  21    -0.172401903015E+04    0.25688E-01   -0.14597E-01  1736   0.218E-01    0.247E+00
DAV:  22    -0.172404106712E+04   -0.22037E-01   -0.57327E-02  1720   0.163E-01    0.303E+00
DAV:  23    -0.172402670713E+04    0.14360E-01   -0.56012E-02  1752   0.140E-01    0.208E+00
DAV:  24    -0.172404003176E+04   -0.13325E-01   -0.59411E-02  1744   0.137E-01    0.213E+00
DAV:  25    -0.172403593468E+04    0.40971E-02   -0.40216E-02  1720   0.102E-01    0.181E+00
DAV:  26    -0.172403596563E+04   -0.30943E-04   -0.22182E-02  1768   0.961E-02    0.120E+00
DAV:  27    -0.172404039840E+04   -0.44328E-02   -0.20294E-02  1728   0.697E-02    0.175E+00
DAV:  28    -0.172403529769E+04    0.51007E-02   -0.11182E-02  1736   0.703E-02    0.903E-01
DAV:  29    -0.172403745435E+04   -0.21567E-02   -0.48380E-03  1752   0.511E-02    0.877E-01
DAV:  30    -0.172403731384E+04    0.14052E-03   -0.55794E-03  1648   0.382E-02    0.628E-01
DAV:  31    -0.172403814239E+04   -0.82855E-03   -0.19422E-03  1600   0.406E-02    0.452E-01
DAV:  32    -0.172403902582E+04   -0.88344E-03   -0.26254E-03  1720   0.290E-02    0.712E-01
DAV:  33    -0.172403775987E+04    0.12660E-02   -0.29685E-03  1528   0.289E-02    0.346E-01
DAV:  34    -0.172403881398E+04   -0.10541E-02   -0.52543E-04  1512   0.276E-02    0.194E-01
DAV:  35    -0.172403907067E+04   -0.25669E-03   -0.49165E-04  1520   0.188E-02    0.229E-01
DAV:  36    -0.172403913692E+04   -0.66252E-04   -0.81219E-04  1288   0.132E-02    0.299E-01
DAV:  37    -0.172403896393E+04    0.17299E-03   -0.41716E-04  1352   0.132E-02    0.136E-01
DAV:  38    -0.172403911787E+04   -0.15393E-03   -0.11691E-04  1272   0.104E-02    0.912E-02
DAV:  39    -0.172403922782E+04   -0.10996E-03   -0.11987E-04  1200   0.859E-03    0.100E-01
DAV:  40    -0.172403923377E+04   -0.59477E-05   -0.49461E-05  1152   0.703E-03
  16 F= -.17240392E+04 E0= -.17238399E+04  d E =-.227369E+01
       N       E                     dE             d eps       ncg     rms          rms(c)
DAV:   1    -0.172490433239E+04   -0.86510E+00   -0.53758E+02  1568   0.310E+01    0.764E+00
DAV:   2    -0.173887926261E+04   -0.13975E+02   -0.26302E+01  1840   0.585E+00    0.554E+01
DAV:   3    -0.172820735800E+04    0.10672E+02   -0.10289E+01  1848   0.277E+00    0.296E+01
DAV:   4    -0.172648647067E+04    0.17209E+01   -0.69290E+00  1840   0.168E+00    0.148E+01
DAV:   5    -0.172676688280E+04   -0.28041E+00   -0.77857E+00  1944   0.160E+00    0.232E+01
DAV:   6    -0.172623098838E+04    0.53589E+00   -0.63928E+00  1824   0.984E-01    0.125E+01
DAV:   7    -0.172638998457E+04   -0.15900E+00   -0.25168E+00  1896   0.109E+00    0.172E+01
DAV:   8    -0.172598025862E+04    0.40973E+00   -0.30547E+00  1800   0.790E-01    0.125E+01
DAV:   9    -0.172596357070E+04    0.16688E-01   -0.20435E+00  1856   0.783E-01    0.101E+01
DAV:  10    -0.172578731345E+04    0.17626E+00   -0.10370E+00  1840   0.615E-01    0.855E+00
DAV:  11    -0.172572396591E+04    0.63348E-01   -0.89803E-01  1816   0.529E-01    0.739E+00
DAV:  12    -0.172583630624E+04   -0.11234E+00   -0.71561E-01  1848   0.510E-01    0.123E+01
DAV:  13    -0.172565628492E+04    0.18002E+00   -0.78887E-01  1736   0.425E-01    0.733E+00
DAV:  14    -0.172568898974E+04   -0.32705E-01   -0.60148E-01  1808   0.404E-01    0.770E+00
DAV:  15    -0.172561301652E+04    0.75973E-01   -0.54826E-01  1832   0.389E-01    0.730E+00
DAV:  16    -0.172561934479E+04   -0.63283E-02   -0.40660E-01  1840   0.352E-01    0.564E+00
DAV:  17    -0.172565581820E+04   -0.36473E-01   -0.40490E-01  1832   0.332E-01    0.773E+00
DAV:  18    -0.172556560761E+04    0.90211E-01   -0.58453E-01  1824   0.323E-01    0.479E+00
DAV:  19    -0.172559258983E+04   -0.26982E-01   -0.13943E-01  1736   0.242E-01    0.435E+00
DAV:  20    -0.172558984839E+04    0.27414E-02   -0.12152E-01  1784   0.179E-01    0.337E+00
DAV:  21    -0.172559168175E+04   -0.18334E-02   -0.66851E-02  1768   0.160E-01    0.310E+00
DAV:  22    -0.172559717457E+04   -0.54928E-02   -0.63372E-02  1800   0.147E-01    0.291E+00
DAV:  23    -0.172560329047E+04   -0.61159E-02   -0.53551E-02  1784   0.153E-01    0.343E+00
DAV:  24    -0.172558110283E+04    0.22188E-01   -0.77730E-02  1768   0.127E-01    0.211E+00
DAV:  25    -0.172560540020E+04   -0.24297E-01   -0.43178E-02  1776   0.131E-01    0.282E+00
DAV:  26    -0.172559208167E+04    0.13319E-01   -0.35897E-02  1712   0.114E-01    0.151E+00
DAV:  27    -0.172560094796E+04   -0.88663E-02   -0.30428E-02  1792   0.104E-01    0.172E+00
DAV:  28    -0.172559758908E+04    0.33589E-02   -0.25488E-02  1688   0.799E-02    0.123E+00
DAV:  29    -0.172559993687E+04   -0.23478E-02   -0.13022E-02  1680   0.775E-02    0.911E-01
DAV:  30    -0.172560005340E+04   -0.11653E-03   -0.69322E-03  1704   0.447E-02    0.540E-01
DAV:  31    -0.172560185832E+04   -0.18049E-02   -0.54934E-03  1696   0.431E-02    0.665E-01
DAV:  32    -0.172560124337E+04    0.61495E-03   -0.53597E-03  1600   0.343E-02    0.611E-01
DAV:  33    -0.172560129755E+04   -0.54183E-04   -0.28089E-03  1696   0.310E-02    0.297E-01
DAV:  34    -0.172560193535E+04   -0.63781E-03   -0.74026E-04  1632   0.255E-02    0.192E-01
DAV:  35    -0.172560224743E+04   -0.31208E-03   -0.72170E-04  1640   0.185E-02    0.244E-01
DAV:  36    -0.172560243516E+04   -0.18773E-03   -0.10465E-03  1368   0.152E-02    0.323E-01
DAV:  37    -0.172560236264E+04    0.72518E-04   -0.84739E-04  1392   0.141E-02    0.210E-01
[...]
DAV:  15    -0.175291825498E+04    0.27991E-01   -0.26831E-01  1760   0.253E-01    0.380E+00
DAV:  16    -0.175292618546E+04   -0.79305E-02   -0.24040E-01  1768   0.207E-01    0.355E+00
DAV:  17    -0.175291111747E+04    0.15068E-01   -0.13089E-01  1712   0.186E-01    0.184E+00
DAV:  18    -0.175292442636E+04   -0.13309E-01   -0.47251E-02  1736   0.116E-01    0.179E+00
DAV:  19    -0.175292730144E+04   -0.28751E-02   -0.41730E-02  1832   0.995E-02    0.213E+00
DAV:  20    -0.175291713362E+04    0.10168E-01   -0.55410E-02  1752   0.964E-02    0.123E+00
DAV:  21    -0.175292401091E+04   -0.68773E-02   -0.31250E-02  1776   0.932E-02    0.120E+00
DAV:  22    -0.175292505205E+04   -0.10411E-02   -0.22970E-02  1776   0.781E-02    0.138E+00
DAV:  23    -0.175292014938E+04    0.49027E-02   -0.12881E-02  1680   0.591E-02    0.784E-01
DAV:  24    -0.175292404494E+04   -0.38956E-02   -0.99107E-03  1712   0.537E-02    0.999E-01
DAV:  25    -0.175292212847E+04    0.19165E-02   -0.96321E-03  1672   0.469E-02    0.567E-01
DAV:  26    -0.175292421717E+04   -0.20887E-02   -0.76585E-03  1720   0.450E-02    0.632E-01
DAV:  27    -0.175292362554E+04    0.59162E-03   -0.40721E-03  1664   0.361E-02    0.528E-01
DAV:  28    -0.175292335625E+04    0.26929E-03   -0.19861E-03  1696   0.261E-02    0.352E-01
DAV:  29    -0.175292389641E+04   -0.54016E-03   -0.13011E-03  1624   0.206E-02    0.278E-01
DAV:  30    -0.175292414635E+04   -0.24994E-03   -0.47838E-04  1496   0.196E-02    0.248E-01
DAV:  31    -0.175292404866E+04    0.97698E-04   -0.56087E-04  1264   0.107E-02    0.164E-01
DAV:  32    -0.175292411656E+04   -0.67908E-04   -0.18710E-04  1136   0.734E-03    0.105E-01
DAV:  33    -0.175292418162E+04   -0.65059E-04   -0.61991E-05  1200   0.623E-03    0.840E-02
DAV:  34    -0.175292422518E+04   -0.43553E-04   -0.38721E-05  1200   0.568E-03    0.640E-02
DAV:  35    -0.175292426738E+04   -0.42207E-04   -0.30821E-05  1184   0.511E-03    0.507E-02
DAV:  36    -0.175292429204E+04   -0.24660E-04   -0.25335E-05  1176   0.389E-03    0.316E-02
DAV:  37    -0.175292432414E+04   -0.32092E-04   -0.12301E-05  1096   0.351E-03    0.495E-02
DAV:  38    -0.175292434352E+04   -0.19386E-04   -0.31042E-05  1080   0.327E-03    0.304E-02
DAV:  39    -0.175292436773E+04   -0.24207E-04   -0.46277E-06  1080   0.308E-03    0.257E-02
DAV:  40    -0.175292437829E+04   -0.10559E-04   -0.48649E-06  1056   0.156E-03    0.598E-03
DAV:  41    -0.175292439911E+04   -0.20818E-04   -0.18563E-06  1080   0.156E-03    0.104E-02
DAV:  42    -0.175292441137E+04   -0.12268E-04   -0.11957E-06  1088   0.107E-03    0.338E-03
DAV:  43    -0.175292441889E+04   -0.75180E-05   -0.54124E-07  1056   0.761E-04
  96 F= -.17529244E+04 E0= -.17527667E+04  d E =-.101205E+01
       N       E                     dE             d eps       ncg     rms          rms(c)
DAV:   1    -0.175315381360E+04   -0.22940E+00   -0.63274E+02  1568   0.331E+01    0.109E+01
DAV:   2    -0.177129949371E+04   -0.18146E+02   -0.48638E+01  1920   0.735E+00    0.422E+01
DAV:   3    -0.175986709167E+04    0.11432E+02   -0.13535E+01  1928   0.320E+00    0.291E+01
DAV:   4    -0.175645254584E+04    0.34145E+01   -0.89986E+00  1952   0.221E+00    0.164E+01
DAV:   5    -0.175551467755E+04    0.93787E+00   -0.11617E+01  1864   0.181E+00    0.190E+01
DAV:   6    -0.175475964502E+04    0.75503E+00   -0.54552E+00  1840   0.113E+00    0.116E+01
DAV:   7    -0.175463157825E+04    0.12807E+00   -0.36105E+00  1936   0.966E-01    0.112E+01
DAV:   8    -0.175506616288E+04   -0.43458E+00   -0.62866E+00  1984   0.110E+00    0.204E+01
DAV:   9    -0.175475579346E+04    0.31037E+00   -0.69261E+00  1864   0.758E-01    0.877E+00
DAV:  10    -0.175456932883E+04    0.18646E+00   -0.29468E+00  1976   0.831E-01    0.114E+01
DAV:  11    -0.175437880020E+04    0.19053E+00   -0.83238E-01  1792   0.517E-01    0.853E+00
DAV:  12    -0.175459386101E+04   -0.21506E+00   -0.28598E+00  1864   0.629E-01    0.107E+01
DAV:  13    -0.175437298713E+04    0.22087E+00   -0.26122E+00  1848   0.565E-01    0.113E+01
DAV:  14    -0.175422885888E+04    0.14413E+00   -0.45268E-01  1760   0.389E-01    0.827E+00
DAV:  15    -0.175437472665E+04   -0.14587E+00   -0.10237E+00  1864   0.391E-01    0.140E+01
DAV:  16    -0.175416490798E+04    0.20982E+00   -0.71106E-01  1776   0.349E-01    0.782E+00
DAV:  17    -0.175425292150E+04   -0.88014E-01   -0.49186E-01  2024   0.382E-01    0.952E+00
DAV:  18    -0.175424900750E+04    0.39140E-02   -0.99271E-01  1800   0.351E-01    0.820E+00
DAV:  19    -0.175414641093E+04    0.10260E+00   -0.38812E-01  1688   0.298E-01    0.510E+00
DAV:  20    -0.175418100856E+04   -0.34598E-01   -0.11605E-01  1712   0.190E-01    0.391E+00
DAV:  21    -0.175418938453E+04   -0.83760E-02   -0.11997E-01  1832   0.185E-01    0.342E+00
DAV:  22    -0.175418228795E+04    0.70966E-02   -0.64273E-02  1776   0.143E-01    0.300E+00
DAV:  23    -0.175419113927E+04   -0.88513E-02   -0.84570E-02  1784   0.122E-01    0.299E+00
DAV:  24    -0.175420665839E+04   -0.15519E-01   -0.10042E-01  1896   0.166E-01    0.441E+00
DAV:  25    -0.175417241867E+04    0.34240E-01   -0.18965E-01  1784   0.175E-01    0.253E+00
DAV:  26    -0.175420442365E+04   -0.32005E-01   -0.13262E-01  1880   0.195E-01    0.362E+00
DAV:  27    -0.175419301212E+04    0.11412E-01   -0.15833E-01  1880   0.179E-01    0.374E+00
DAV:  28    -0.175417236334E+04    0.20649E-01   -0.78653E-02  1744   0.143E-01    0.258E+00
DAV:  29    -0.175417896477E+04   -0.66014E-02   -0.56012E-02  1696   0.125E-01    0.189E+00
DAV:  30    -0.175418663491E+04   -0.76701E-02   -0.24804E-02  1688   0.101E-01    0.167E+00
DAV:  31    -0.175418571476E+04    0.92016E-03   -0.23510E-02  1776   0.672E-02    0.115E+00
DAV:  32    -0.175418923549E+04   -0.35207E-02   -0.53730E-03  1680   0.508E-02    0.110E+00
DAV:  33    -0.175418866439E+04    0.57110E-03   -0.73678E-03  1760   0.396E-02    0.917E-01
DAV:  34    -0.175418979670E+04   -0.11323E-02   -0.31288E-03  1592   0.363E-02    0.769E-01
DAV:  35    -0.175418985478E+04   -0.58087E-04   -0.31077E-03  1704   0.352E-02    0.684E-01
DAV:  36    -0.175418973348E+04    0.12131E-03   -0.13119E-03  1720   0.312E-02    0.461E-01
DAV:  37    -0.175419018481E+04   -0.45133E-03   -0.10121E-03  1632   0.216E-02    0.290E-01
DAV:  38    -0.175419078413E+04   -0.59933E-03   -0.57944E-04  1504   0.159E-02    0.219E-01
DAV:  39    -0.175419108570E+04   -0.30156E-03   -0.28260E-04  1360   0.161E-02    0.185E-01
DAV:  40    -0.175419129754E+04   -0.21184E-03   -0.40484E-04  1480   0.142E-02    0.188E-01
DAV:  41    -0.175419137937E+04   -0.81829E-04   -0.15202E-04  1272   0.107E-02    0.104E-01
DAV:  42    -0.175419151821E+04   -0.13884E-03   -0.52264E-05  1200   0.656E-03    0.131E-01
DAV:  43    -0.175419153085E+04   -0.12642E-04   -0.97822E-05  1136   0.408E-03    0.578E-02
DAV:  44    -0.175419162599E+04   -0.95140E-04   -0.23574E-05  1176   0.399E-03    0.303E-02
DAV:  45    -0.175419169718E+04   -0.71193E-04   -0.13608E-05  1104   0.301E-03    0.340E-02
DAV:  46    -0.175419174623E+04   -0.49052E-04   -0.64939E-06  1128   0.271E-03    0.333E-02
DAV:  47    -0.175419177767E+04   -0.31441E-04   -0.51237E-06  1096   0.226E-03    0.215E-02
DAV:  48    -0.175419180169E+04   -0.24020E-04   -0.58769E-06  1096   0.163E-03    0.124E-02
DAV:  49    -0.175419182047E+04   -0.18781E-04   -0.15299E-06  1080   0.125E-03    0.117E-02
DAV:  50    -0.175419183122E+04   -0.10741E-04   -0.99524E-07  1096   0.829E-04    0.692E-03
DAV:  51    -0.175419183948E+04   -0.82655E-05   -0.59818E-07  1072   0.631E-04
  97 F= -.17541918E+04 E0= -.17540395E+04  d E =-.227947E+01
       N       E                     dE             d eps       ncg     rms          rms(c)
DAV:   1    -0.175521322453E+04   -0.10214E+01   -0.14888E+02  1568   0.162E+01    0.645E+00
DAV:   2    -0.176533869798E+04   -0.10125E+02   -0.24437E+01  1952   0.427E+00    0.374E+01
DAV:   3    -0.175880215940E+04    0.65365E+01   -0.74940E+00  1872   0.213E+00    0.244E+01
DAV:   4    -0.175686213290E+04    0.19400E+01   -0.10006E+01  1968   0.160E+00    0.122E+01
DAV:   5    -0.175610389145E+04    0.75824E+00   -0.31957E+00  1864   0.129E+00    0.134E+01
DAV:   6    -0.175550297890E+04    0.60091E+00   -0.28956E+00  1832   0.775E-01    0.117E+01
DAV:   7    -0.175557722293E+04   -0.74244E-01   -0.20179E+00  1792   0.487E-01    0.107E+01
DAV:   8    -0.175553709870E+04    0.40124E-01   -0.19204E+00  1896   0.455E-01    0.127E+01
DAV:   9    -0.175534845372E+04    0.18864E+00   -0.12695E+00  1792   0.498E-01    0.588E+00
DAV:  10    -0.175549631279E+04   -0.14786E+00   -0.11372E+00  1808   0.479E-01    0.754E+00
DAV:  11    -0.175552627007E+04   -0.29957E-01   -0.14283E+00  1824   0.417E-01    0.110E+01
DAV:  12    -0.175540029673E+04    0.12597E+00   -0.15950E+00  1760   0.400E-01    0.545E+00
DAV:  13    -0.175541711297E+04   -0.16816E-01   -0.54348E-01  1696   0.289E-01    0.380E+00
DAV:  14    -0.175545775150E+04   -0.40639E-01   -0.58438E-01  1848   0.255E-01    0.639E+00
DAV:  15    -0.175543857996E+04    0.19172E-01   -0.63836E-01  1848   0.254E-01    0.804E+00
DAV:  16    -0.175538433349E+04    0.54246E-01   -0.37044E-01  1672   0.237E-01    0.498E+00
DAV:  17    -0.175538183514E+04    0.24983E-02   -0.14733E-01  1784   0.219E-01    0.304E+00
DAV:  18    -0.175542828608E+04   -0.46451E-01   -0.22352E-01  1872   0.218E-01    0.484E+00
DAV:  19    -0.175540044773E+04    0.27838E-01   -0.17058E-01  1784   0.223E-01    0.437E+00
DAV:  20    -0.175540373370E+04   -0.32860E-02   -0.18743E-01  1824   0.205E-01    0.446E+00
DAV:  21    -0.175537520062E+04    0.28533E-01   -0.10006E-01  1800   0.188E-01    0.243E+00
DAV:  22    -0.175539651895E+04   -0.21318E-01   -0.48981E-02  1736   0.150E-01    0.181E+00
DAV:  23    -0.175540054422E+04   -0.40253E-02   -0.15010E-02  1720   0.996E-02    0.154E+00
DAV:  24    -0.175539995384E+04    0.59038E-03   -0.17883E-02  1784   0.644E-02    0.131E+00
DAV:  25    -0.175540013535E+04   -0.18152E-03   -0.88435E-03  1832   0.577E-02    0.949E-01
DAV:  26    -0.175540129148E+04   -0.11561E-02   -0.48303E-03  1872   0.470E-02    0.899E-01
DAV:  27    -0.175540133608E+04   -0.44597E-04   -0.67576E-03  1720   0.411E-02    0.661E-01
DAV:  28    -0.175540287855E+04   -0.15425E-02   -0.28079E-03  1664   0.398E-02    0.639E-01
DAV:  29    -0.175540268755E+04    0.19100E-03   -0.24141E-03  1648   0.303E-02    0.554E-01
DAV:  30    -0.175540296638E+04   -0.27883E-03   -0.11420E-03  1576   0.239E-02    0.458E-01
DAV:  31    -0.175540300527E+04   -0.38890E-04   -0.85448E-04  1512   0.167E-02    0.398E-01
DAV:  32    -0.175540303668E+04   -0.31413E-04   -0.96655E-04  1408   0.174E-02    0.252E-01
DAV:  33    -0.175540321919E+04   -0.18251E-03   -0.21986E-04  1288   0.115E-02    0.139E-01
DAV:  34    -0.175540338985E+04   -0.17066E-03   -0.17598E-04  1272   0.961E-03    0.959E-02
DAV:  35    -0.175540346191E+04   -0.72060E-04   -0.48793E-05  1224   0.715E-03    0.670E-02
DAV:  36    -0.175540354543E+04   -0.83512E-04   -0.55772E-05  1192   0.734E-03    0.758E-02
DAV:  37    -0.175540357048E+04   -0.25054E-04   -0.28652E-05  1168   0.471E-03    0.543E-02
DAV:  38    -0.175540360235E+04   -0.31870E-04   -0.25433E-05  1112   0.367E-03    0.428E-02
DAV:  39    -0.175540363427E+04   -0.31915E-04   -0.21951E-05  1096   0.273E-03    0.322E-02
DAV:  40    -0.175540366133E+04   -0.27061E-04   -0.10079E-05  1096   0.257E-03    0.167E-02
DAV:  41    -0.175540367878E+04   -0.17448E-04   -0.36410E-06  1096   0.156E-03    0.951E-03
DAV:  42    -0.175540369644E+04   -0.17667E-04   -0.14381E-06  1088   0.119E-03    0.595E-03
DAV:  43    -0.175540371068E+04   -0.14239E-04   -0.10409E-06  1096   0.967E-04    0.616E-03
DAV:  44    -0.175540371643E+04   -0.57479E-05   -0.45137E-07  1064   0.607E-04
  98 F= -.17554037E+04 E0= -.17552558E+04  d E =-.121188E+01
       N       E                     dE             d eps       ncg     rms          rms(c)
DAV:   1    -0.175494497258E+04    0.45874E+00   -0.90951E+02  1568   0.401E+01    0.159E+01
DAV:   2    -0.177732256377E+04   -0.22378E+02   -0.98414E+01  1968   0.100E+01    0.395E+01
DAV:   3    -0.176673662572E+04    0.10586E+02   -0.22497E+01  2008   0.497E+00    0.266E+01
DAV:   4    -0.176312449937E+04    0.36121E+01   -0.21509E+01  1960   0.382E+00    0.170E+01
DAV:   5    -0.175955589035E+04    0.35686E+01   -0.49029E+00  1832   0.309E+00    0.203E+01
DAV:   6    -0.175863054475E+04    0.92535E+00   -0.68136E+00  1808   0.136E+00    0.117E+01
DAV:   7    -0.175820187199E+04    0.42867E+00   -0.37445E+00  2096   0.127E+00    0.132E+01
DAV:   8    -0.175833934948E+04   -0.13748E+00   -0.40013E+00  1968   0.135E+00    0.261E+01
DAV:   9    -0.175746632163E+04    0.87303E+00   -0.77717E+00  1832   0.994E-01    0.210E+01
DAV:  10    -0.175702724913E+04    0.43907E+00   -0.39550E+00  1824   0.718E-01    0.123E+01
DAV:  11    -0.175688624517E+04    0.14100E+00   -0.67870E-01  1784   0.500E-01    0.839E+00
DAV:  12    -0.175697602069E+04   -0.89776E-01   -0.24450E+00  1920   0.618E-01    0.114E+01
DAV:  13    -0.175686448920E+04    0.11153E+00   -0.20906E+00  1872   0.597E-01    0.999E+00
DAV:  14    -0.175687625534E+04   -0.11766E-01   -0.25306E+00  1904   0.689E-01    0.112E+01
DAV:  15    -0.175659351215E+04    0.28274E+00   -0.26432E+00  1904   0.704E-01    0.126E+01
DAV:  16    -0.175662618388E+04   -0.32672E-01   -0.19208E+00  1864   0.613E-01    0.104E+01
DAV:  17    -0.175655021363E+04    0.75970E-01   -0.11588E+00  1776   0.506E-01    0.933E+00
DAV:  18    -0.175662227668E+04   -0.72063E-01   -0.17862E+00  1800   0.432E-01    0.717E+00
DAV:  19    -0.175659448237E+04    0.27794E-01   -0.71359E-01  1792   0.347E-01    0.736E+00
DAV:  20    -0.175654010708E+04    0.54375E-01   -0.80947E-01  1856   0.337E-01    0.766E+00
DAV:  21    -0.175653257488E+04    0.75322E-02   -0.80764E-01  1888   0.486E-01    0.868E+00
DAV:  22    -0.175646225319E+04    0.70322E-01   -0.19766E-01  1680   0.287E-01    0.631E+00
DAV:  23    -0.175646418388E+04   -0.19307E-02   -0.58963E-02  1760   0.108E-01    0.696E+00
DAV:  24    -0.175645780881E+04    0.63751E-02   -0.65562E-01  2152   0.240E-01    0.477E+00
DAV:  25    -0.175645917519E+04   -0.13664E-02   -0.17997E-01  1816   0.263E-01    0.308E+00
DAV:  26    -0.175646345223E+04   -0.42770E-02   -0.13184E-01  1792   0.180E-01    0.270E+00
DAV:  27    -0.175646734385E+04   -0.38916E-02   -0.29737E-02  1760   0.116E-01    0.187E+00
DAV:  28    -0.175646816513E+04   -0.82128E-03   -0.26426E-02  1808   0.868E-02    0.143E+00
DAV:  29    -0.175647906248E+04   -0.10897E-01   -0.83925E-02  1848   0.108E-01    0.207E+00
DAV:  30    -0.175646822349E+04    0.10839E-01   -0.33812E-02  1728   0.792E-02    0.139E+00
DAV:  31    -0.175646985891E+04   -0.16354E-02   -0.11581E-02  1760   0.719E-02    0.137E+00
DAV:  32    -0.175646963646E+04    0.22245E-03   -0.62528E-03  1784   0.434E-02    0.117E+00
DAV:  33    -0.175647203785E+04   -0.24014E-02   -0.46305E-03  1768   0.409E-02    0.110E+00
DAV:  34    -0.175647156847E+04    0.46938E-03   -0.21794E-03  1688   0.322E-02    0.761E-01
DAV:  35    -0.175647199536E+04   -0.42689E-03   -0.32420E-03  1808   0.300E-02    0.590E-01
DAV:  36    -0.175647209289E+04   -0.97529E-04   -0.92041E-04  1648   0.302E-02    0.357E-01
DAV:  37    -0.175647244439E+04   -0.35150E-03   -0.27721E-04  1600   0.189E-02    0.284E-01
DAV:  38    -0.175647267538E+04   -0.23099E-03   -0.92410E-04  1456   0.163E-02    0.326E-01
DAV:  39    -0.175647262422E+04    0.51163E-04   -0.24515E-04  1288   0.121E-02    0.209E-01
DAV:  40    -0.175647291680E+04   -0.29258E-03   -0.15819E-04  1344   0.143E-02    0.146E-01
DAV:  41    -0.175647311134E+04   -0.19454E-03   -0.12395E-04  1304   0.964E-03    0.983E-02
DAV:  42    -0.175647325963E+04   -0.14829E-03   -0.40159E-05  1192   0.720E-03    0.103E-01
DAV:  43    -0.175647331692E+04   -0.57296E-04   -0.43279E-05  1200   0.523E-03    0.726E-02
DAV:  44    -0.175647337346E+04   -0.56534E-04   -0.26633E-05  1168   0.472E-03    0.283E-02
DAV:  45    -0.175647343598E+04   -0.62517E-04   -0.97268E-06  1152   0.304E-03    0.271E-02
DAV:  46    -0.175647347584E+04   -0.39862E-04   -0.74021E-06  1104   0.228E-03    0.243E-02
DAV:  47    -0.175647351119E+04   -0.35349E-04   -0.82911E-06  1136   0.192E-03    0.233E-02
DAV:  48    -0.175647353257E+04   -0.21386E-04   -0.26806E-06  1096   0.163E-03    0.163E-02
DAV:  49    -0.175647354516E+04   -0.12586E-04   -0.18973E-06  1080   0.109E-03    0.996E-03
DAV:  50    -0.175647355643E+04   -0.11270E-04   -0.86611E-07  1080   0.833E-04    0.559E-03
DAV:  51    -0.175647356397E+04   -0.75388E-05   -0.59805E-07  1064   0.543E-04
  99 F= -.17564736E+04 E0= -.17563303E+04  d E =-.228172E+01
       N       E                     dE             d eps       ncg     rms          rms(c)
DAV:   1    -0.175708875071E+04   -0.61519E+00   -0.23940E+02  1568   0.205E+01    0.562E+00
DAV:   2    -0.176594699538E+04   -0.88582E+01   -0.28836E+01  1848   0.398E+00    0.345E+01
DAV:   3    -0.175876247825E+04    0.71845E+01   -0.12814E+01  1872   0.185E+00    0.212E+01
DAV:   4    -0.175777775914E+04    0.98472E+00   -0.80608E+00  1832   0.121E+00    0.120E+01
DAV:   5    -0.175784047756E+04   -0.62718E-01   -0.39317E+00  1880   0.101E+00    0.112E+01
DAV:   6    -0.175774054713E+04    0.99930E-01   -0.34817E+00  1896   0.849E-01    0.124E+01
DAV:   7    -0.175776445987E+04   -0.23913E-01   -0.39291E+00  1872   0.673E-01    0.135E+01
DAV:   8    -0.175766573259E+04    0.98727E-01   -0.42792E+00  1936   0.622E-01    0.926E+00
DAV:   9    -0.175772405364E+04   -0.58321E-01   -0.11951E+00  1848   0.570E-01    0.989E+00
DAV:  10    -0.175749627389E+04    0.22778E+00   -0.12246E+00  1864   0.444E-01    0.570E+00
DAV:  11    -0.175756729787E+04   -0.71024E-01   -0.86374E-01  1824   0.338E-01    0.749E+00
DAV:  12    -0.175747562117E+04    0.91677E-01   -0.53938E-01  1848   0.311E-01    0.435E+00
DAV:  13    -0.175754628439E+04   -0.70663E-01   -0.68280E-01  1808   0.319E-01    0.616E+00
DAV:  14    -0.175746594983E+04    0.80335E-01   -0.20859E-01  1760   0.250E-01    0.401E+00
DAV:  15    -0.175750446215E+04   -0.38512E-01   -0.51589E-01  1872   0.255E-01    0.498E+00
DAV:  16    -0.175749018766E+04    0.14274E-01   -0.29946E-01  1808   0.245E-01    0.602E+00
DAV:  17    -0.175744562597E+04    0.44562E-01   -0.30906E-01  1696   0.217E-01    0.362E+00
DAV:  18    -0.175748334450E+04   -0.37719E-01   -0.13262E-01  1664   0.191E-01    0.392E+00
DAV:  19    -0.175746610567E+04    0.17239E-01   -0.12317E-01  1744   0.141E-01    0.245E+00
DAV:  20    -0.175748232609E+04   -0.16220E-01   -0.94653E-02  1704   0.146E-01    0.225E+00
DAV:  21    -0.175748023786E+04    0.20882E-02   -0.53830E-02  1776   0.128E-01    0.166E+00
DAV:  22    -0.175748592847E+04   -0.56906E-02   -0.34539E-02  1728   0.103E-01    0.183E+00
DAV:  23    -0.175747997233E+04    0.59561E-02   -0.19341E-02  1720   0.892E-02    0.769E-01
DAV:  24    -0.175748552523E+04   -0.55529E-02   -0.63995E-03  1744   0.637E-02    0.801E-01
DAV:  25    -0.175748591506E+04   -0.38983E-03   -0.70343E-03  1816   0.466E-02    0.709E-01
DAV:  26    -0.175748509030E+04    0.82476E-03   -0.47242E-03  1760   0.378E-02    0.297E-01
DAV:  27    -0.175748622699E+04   -0.11367E-02   -0.10297E-03  1600   0.258E-02    0.308E-01
DAV:  28    -0.175748614683E+04    0.80163E-04   -0.54081E-04  1344   0.178E-02    0.279E-01
DAV:  29    -0.175748611735E+04    0.29471E-04   -0.76461E-04  1312   0.154E-02    0.216E-01
DAV:  30    -0.175748617023E+04   -0.52872E-04   -0.37812E-04  1376   0.134E-02    0.120E-01
DAV:  31    -0.175748634618E+04   -0.17596E-03   -0.37667E-04  1272   0.122E-02    0.125E-01
DAV:  32    -0.175748637149E+04   -0.25305E-04   -0.18894E-04  1248   0.886E-03    0.133E-01
DAV:  33    -0.175748636406E+04    0.74255E-05   -0.55617E-05  1232   0.695E-03
 100 F= -.17574864E+04 E0= -.17573441E+04  d E =-.101280E+01
