SiO2_quartz_beta (1 1 1)dikte(1)vakuum( 
           1
    21.984700    0.000000    0.000000
     7.247925   21.039361    0.000000
     0.000000    0.000000   21.506600
   Si   O 
  81 162
Direct configuration=     1
   0.40414000  0.39136000  0.13095000
   0.52156000  0.33796000  0.04369000
   0.25833000  0.41587000  0.11207000
   0.60183000  0.25171000  0.23853000
   0.71925000  0.19832000  0.15127000
   0.45602000  0.27622000  0.21965000
   0.22224000  0.51985000  0.03197000
   0.91694000  0.05867000  0.25884000
   0.07642000  0.54436000  0.01309000
   0.26323000  0.58876000  0.23567000
   0.38066000  0.53537000  0.14841000
   0.11742000  0.61327000  0.21678000
   0.88364000  0.85690000  0.02911000
   0.57834000  0.39572000  0.25598000
   0.73783000  0.88141000  0.01022000
   0.08133000  0.71726000  0.13668000
   0.19875000  0.66386000  0.04942000
   0.93552000  0.74177000  0.11780000
   0.54505000  0.19395000  0.02624000
   0.23975000  0.73277000  0.25312000
   0.39923000  0.21846000  0.00736000
   0.74274000  0.05431000  0.13382000
   0.86016000  0.00091000  0.04656000
   0.59692000  0.07882000  0.11493000
   0.94042000  0.91466000  0.24139000
   0.05785000  0.86127000  0.15413000
   0.79461000  0.93917000  0.22251000
   0.26323000  0.25543000  0.23567000
   0.38066000  0.20203000  0.14841000
   0.11742000  0.27994000  0.21678000
   0.88364000  0.52357000  0.02911000
   0.57834000  0.06239000  0.25598000
   0.73783000  0.54808000  0.01022000
   0.08133000  0.38392000  0.13668000
   0.19875000  0.33053000  0.04942000
   0.93552000  0.40844000  0.11780000
   0.54505000  0.86062000  0.02624000
   0.23975000  0.39944000  0.25312000
   0.39923000  0.88513000  0.00736000
   0.74274000  0.72097000  0.13382000
   0.86016000  0.66758000  0.04656000
   0.59692000  0.74549000  0.11493000
   0.94042000  0.58133000  0.24139000
   0.05785000  0.52793000  0.15413000
   0.79461000  0.60584000  0.22251000
   0.40414000  0.05802000  0.13095000
   0.52156000  0.00463000  0.04369000
   0.25833000  0.08254000  0.11207000
   0.60183000  0.91838000  0.23853000
   0.71925000  0.86498000  0.15127000
   0.45602000  0.94289000  0.21965000
   0.22224000  0.18652000  0.03197000
   0.91694000  0.72534000  0.25884000
   0.07642000  0.21103000  0.01309000
   0.54505000  0.52728000  0.02624000
   0.23975000  0.06611000  0.25312000
   0.39923000  0.55180000  0.00736000
   0.74274000  0.38764000  0.13382000
   0.86016000  0.33425000  0.04656000
   0.59692000  0.41215000  0.11493000
   0.94042000  0.24799000  0.24139000
   0.05785000  0.19460000  0.15413000
   0.79461000  0.27251000  0.22251000
   0.40414000  0.72469000  0.13095000
   0.52156000  0.67130000  0.04369000
   0.25833000  0.74920000  0.11207000
   0.60183000  0.58504000  0.23853000
   0.71925000  0.53165000  0.15127000
   0.45602000  0.60956000  0.21965000
   0.22224000  0.85318000  0.03197000
   0.91694000  0.39201000  0.25884000
   0.07642000  0.87770000  0.01309000
   0.26323000  0.92209000  0.23567000
   0.38066000  0.86870000  0.14841000
   0.11742000  0.94661000  0.21678000
   0.88364000  0.19023000  0.02911000
   0.57834000  0.72906000  0.25598000
   0.73783000  0.21475000  0.01022000
   0.08133000  0.05059000  0.13668000
   0.19875000  0.99720000  0.04942000
   0.93552000  0.07510000  0.11780000
   0.23109000  0.42552000  0.18244000
   0.33569000  0.39009000  0.10471000
   0.40589000  0.45902000  0.15663000
   0.43628000  0.22127000  0.18418000
   0.42562000  0.34731000  0.19210000
   0.44936000  0.36900000  0.07037000
   0.42878000  0.28587000  0.29002000
   0.53338000  0.25044000  0.21229000
   0.60357000  0.31938000  0.26421000
   0.63397000  0.08162000  0.29175000
   0.62331000  0.20767000  0.29968000
   0.64705000  0.22935000  0.17795000
   0.04919000  0.55401000  0.08346000
   0.15379000  0.51858000  0.00573000
   0.22398000  0.58752000  0.05765000
   0.25438000  0.34976000  0.08519000
   0.24371000  0.47581000  0.09312000
   0.84474000  0.08971000  0.28552000
   0.09019000  0.62292000  0.28716000
   0.19479000  0.58749000  0.20942000
   0.26498000  0.65643000  0.26135000
   0.29538000  0.41867000  0.28889000
   0.28471000  0.54472000  0.29681000
   0.30846000  0.56640000  0.17508000
   0.71059000  0.89106000  0.08059000
   0.81519000  0.85563000  0.00286000
   0.88539000  0.92457000  0.05478000
   0.91578000  0.68681000  0.08233000
   0.90512000  0.81286000  0.09025000
   0.50615000  0.42676000  0.28266000
   0.90828000  0.75142000  0.18817000
   0.01288000  0.71599000  0.11044000
   0.08307000  0.78492000  0.16236000
   0.11347000  0.54717000  0.18990000
   0.10281000  0.67321000  0.19783000
   0.12655000  0.69490000  0.07610000
   0.37200000  0.22811000  0.07773000
   0.47660000  0.19268000  0.00000000
   0.54679000  0.26162000  0.05192000
   0.57719000  0.02386000  0.07947000
   0.56653000  0.14991000  0.08739000
   0.16755000  0.76381000  0.27980000
   0.56969000  0.08847000  0.18531000
   0.67429000  0.05304000  0.10758000
   0.74448000  0.12197000  0.15950000
   0.77488000  0.88422000  0.18704000
   0.76421000  0.01026000  0.19496000
   0.78796000  0.03195000  0.07323000
   0.76738000  0.94882000  0.29288000
   0.87198000  0.91339000  0.21515000
   0.94217000  0.98233000  0.26707000
   0.97256000  0.74457000  0.29462000
   0.96190000  0.87062000  0.30254000
   0.98565000  0.89230000  0.18081000
   0.09019000  0.28959000  0.28716000
   0.19479000  0.25416000  0.20942000
   0.26498000  0.32309000  0.26135000
   0.29538000  0.08534000  0.28889000
   0.28471000  0.21139000  0.29681000
   0.30846000  0.23307000  0.17508000
   0.71059000  0.55773000  0.08059000
   0.81519000  0.52230000  0.00286000
   0.88539000  0.59123000  0.05478000
   0.91578000  0.35348000  0.08233000
   0.90512000  0.47953000  0.09025000
   0.50615000  0.09343000  0.28266000
   0.90828000  0.41808000  0.18817000
   0.01288000  0.38266000  0.11044000
   0.08307000  0.45159000  0.16236000
   0.11347000  0.21383000  0.18990000
   0.10281000  0.33988000  0.19783000
   0.12655000  0.36157000  0.07610000
   0.37200000  0.89478000  0.07773000
   0.47660000  0.85935000  0.00000000
   0.54679000  0.92828000  0.05192000
   0.57719000  0.69053000  0.07947000
   0.56653000  0.81658000  0.08739000
   0.16755000  0.43048000  0.27980000
   0.56969000  0.75513000  0.18531000
   0.67429000  0.71971000  0.10758000
   0.74448000  0.78864000  0.15950000
   0.77488000  0.55088000  0.18704000
   0.76421000  0.67693000  0.19496000
   0.78796000  0.69862000  0.07323000
   0.76738000  0.61549000  0.29288000
   0.87198000  0.58006000  0.21515000
   0.94217000  0.64899000  0.26707000
   0.97256000  0.41124000  0.29462000
   0.96190000  0.53729000  0.30254000
   0.98565000  0.55897000  0.18081000
   0.23109000  0.09218000  0.18244000
   0.33569000  0.05676000  0.10471000
   0.40589000  0.12569000  0.15663000
   0.43628000  0.88793000  0.18418000
   0.42562000  0.01398000  0.19210000
   0.44936000  0.03567000  0.07037000
   0.42878000  0.95254000  0.29002000
   0.53338000  0.91711000  0.21229000
   0.60357000  0.98604000  0.26421000
   0.63397000  0.74829000  0.29175000
   0.62331000  0.87434000  0.29968000
   0.64705000  0.89602000  0.17795000
   0.04919000  0.22068000  0.08346000
   0.15379000  0.18525000  0.00573000
   0.22398000  0.25418000  0.05765000
   0.25438000  0.01643000  0.08519000
   0.24371000  0.14248000  0.09312000
   0.84474000  0.75638000  0.28552000
   0.37200000  0.56145000  0.07773000
   0.47660000  0.52602000  0.00000000
   0.54679000  0.59495000  0.05192000
   0.57719000  0.35719000  0.07947000
   0.56653000  0.48324000  0.08739000
   0.16755000  0.09714000  0.27980000
   0.56969000  0.42180000  0.18531000
   0.67429000  0.38637000  0.10758000
   0.74448000  0.45531000  0.15950000
   0.77488000  0.21755000  0.18704000
   0.76421000  0.34360000  0.19496000
   0.78796000  0.36528000  0.07323000
   0.76738000  0.28216000  0.29288000
   0.87198000  0.24673000  0.21515000
   0.94217000  0.31566000  0.26707000
   0.97256000  0.07790000  0.29462000
   0.96190000  0.20395000  0.30254000
   0.98565000  0.22564000  0.18081000
   0.23109000  0.75885000  0.18244000
   0.33569000  0.72342000  0.10471000
   0.40589000  0.79236000  0.15663000
   0.43628000  0.55460000  0.18418000
   0.42562000  0.68065000  0.19210000
   0.44936000  0.70233000  0.07037000
   0.42878000  0.61921000  0.29002000
   0.53338000  0.58378000  0.21229000
   0.60357000  0.65271000  0.26421000
   0.63397000  0.41495000  0.29175000
   0.62331000  0.54100000  0.29968000
   0.64705000  0.56269000  0.17795000
   0.04919000  0.88735000  0.08346000
   0.15379000  0.85192000  0.00573000
   0.22398000  0.92085000  0.05765000
   0.25438000  0.68309000  0.08519000
   0.24371000  0.80914000  0.09312000
   0.84474000  0.42304000  0.28552000
   0.09019000  0.95626000  0.28716000
   0.19479000  0.92083000  0.20942000
   0.26498000  0.98976000  0.26135000
   0.29538000  0.75200000  0.28889000
   0.28471000  0.87805000  0.29681000
   0.30846000  0.89974000  0.17508000
   0.71059000  0.22440000  0.08059000
   0.81519000  0.18897000  0.00286000
   0.88539000  0.25790000  0.05478000
   0.91578000  0.02014000  0.08233000
   0.90512000  0.14619000  0.09025000
   0.50615000  0.76009000  0.28266000
   0.90828000  0.08475000  0.18817000
   0.01288000  0.04932000  0.11044000
   0.08307000  0.11826000  0.16236000
   0.11347000  0.88050000  0.18990000
   0.10281000  0.00655000  0.19783000
   0.12655000  0.02823000  0.07610000
Direct configuration=     2
   0.40070431  0.39256250  0.13522765
   0.52156448  0.33907117  0.04508966
   0.27466707  0.37148537  0.13394340
   0.60184669  0.24995318  0.24084496
   0.71913496  0.19851276  0.15698586
   0.45581736  0.27554573  0.22404836
   0.22460754  0.52091741  0.03125667
   0.91536679  0.05980272  0.26281310
   0.07042860  0.54626740  0.01015021
   0.26255067  0.58692388  0.23735236
   0.38061703  0.53527893  0.15424882
   0.13231673  0.56749067  0.23911696
   0.88570039  0.85584601  0.03094230
   0.57677834  0.39711967  0.25970447
   0.73189597  0.88323890  0.00766238
   0.07892909  0.72146649  0.13925030
   0.19952337  0.66374178  0.04972844
   0.93546457  0.74204273  0.12206391
   0.54711347  0.19279575  0.02831222
   0.23806991  0.73444688  0.25632583
   0.39327996  0.22022301  0.00513247
   0.74125466  0.05549266  0.13869915
   0.86029946  0.00199176  0.04738890
   0.59783345  0.07879255  0.11916771
   0.94039487  0.91292910  0.24426123
   0.05701215  0.86104441  0.15963327
   0.79475539  0.93820088  0.22667518
   0.26258830  0.25346015  0.23745236
   0.38064369  0.20196559  0.15426297
   0.13233363  0.23416891  0.23909910
   0.88570831  0.52250329  0.03093842
   0.57697357  0.06363482  0.25954235
   0.73187991  0.54991547  0.00766768
   0.07894165  0.38814303  0.13926511
   0.19954288  0.33039566  0.04969206
   0.93547257  0.40867328  0.12205709
   0.54710775  0.85948803  0.02834307
   0.23828346  0.40088532  0.25613810
   0.39328449  0.88690093  0.00512394
   0.74126125  0.72211313  0.13868024
   0.86031588  0.66859943  0.04733443
   0.59784540  0.74543503  0.11918601
   0.94038978  0.57958404  0.24425549
   0.05702793  0.52772022  0.15960046
   0.79461768  0.60488397  0.22706228
   0.40070089  0.05924646  0.13522432
   0.52155259  0.00577313  0.04508913
   0.27464315  0.03822690  0.13392494
   0.60190266  0.91653760  0.24091862
   0.71913983  0.86514340  0.15700981
   0.45600575  0.94213398  0.22353581
   0.22463081  0.18753384  0.03118385
   0.91514598  0.72648654  0.26277450
   0.07044085  0.21291611  0.01013319
   0.54708337  0.52616243  0.02837451
   0.23817774  0.06770716  0.25626166
   0.39328512  0.55356286  0.00514045
   0.74121789  0.38883676  0.13871549
   0.86030283  0.33529393  0.04736069
   0.59784126  0.41208197  0.11919174
   0.94040375  0.24623301  0.24427318
   0.05703184  0.19432107  0.15962245
   0.79470863  0.27153440  0.22684084
   0.40070042  0.72593917  0.13520636
   0.52153955  0.67243125  0.04513433
   0.27465122  0.70485025  0.13395649
   0.60189046  0.58321352  0.24090576
   0.71915908  0.53180494  0.15700619
   0.45597642  0.60883508  0.22358855
   0.22460611  0.85420533  0.03121840
   0.91523516  0.39310293  0.26273906
   0.07041407  0.87958363  0.01014102
   0.26259898  0.92016632  0.23746847
   0.38062881  0.86862381  0.15423773
   0.13230028  0.90083753  0.23913513
   0.88575665  0.18915360  0.03090260
   0.57668399  0.73036225  0.25969110
   0.73187928  0.21658637  0.00765436
   0.07891987  0.05480542  0.13923766
   0.19955151  0.99700253  0.04974749
   0.93545414  0.07536684  0.12204457
   0.23160649  0.42344511  0.17996462
   0.34088941  0.38905150  0.10561919
   0.40528604  0.45921323  0.15412641
   0.43472310  0.22162593  0.18182231
   0.42608265  0.34756103  0.18879675
   0.45247115  0.36790872  0.06763561
   0.42895561  0.28547328  0.29038638
   0.53313882  0.25159487  0.21151444
   0.60331547  0.31898951  0.26252073
   0.63476942  0.08379155  0.29249623
   0.62416275  0.20550410  0.30043675
   0.64887886  0.22880595  0.17642986
   0.05079536  0.55354203  0.08126001
   0.15589159  0.51769264  0.00559975
   0.22327762  0.58707918  0.05626175
   0.24974077  0.34957632  0.08185593
   0.22859288  0.52233984  0.07423094
   0.84455280  0.09005296  0.28671826
   0.08884881  0.62222635  0.28921865
   0.19984211  0.58701266  0.20975780
   0.26459264  0.65627753  0.25999864
   0.29621299  0.42073818  0.28970431
   0.28554147  0.54241504  0.29783921
   0.31058712  0.56579886  0.17381323
   0.71214123  0.89053842  0.07821476
   0.81770781  0.85472581  0.00199287
   0.88506100  0.92405293  0.05325746
   0.91445951  0.68727360  0.08088275
   0.90524488  0.81278423  0.08819539
   0.50584328  0.42697448  0.28375528
   0.90988241  0.75038884  0.18309390
   0.01314802  0.71642435  0.11053777
   0.08238632  0.78396451  0.15952916
   0.10909133  0.54706261  0.18601760
   0.08831306  0.72040620  0.17681389
   0.12796668  0.69396612  0.07470058
   0.37403406  0.22750642  0.07517014
   0.47901679  0.19185675 -0.00103189
   0.54651215  0.26113805  0.05028074
   0.57579913  0.02406330  0.07765184
   0.56674755  0.14981949  0.08511855
   0.16756168  0.76392433  0.28091585
   0.57116953  0.08736540  0.18051186
   0.67360794  0.05392495  0.10737003
   0.74380253  0.12172378  0.15673705
   0.77315484  0.88460249  0.18446435
   0.76419995  0.01093405  0.19115932
   0.79048017  0.03087126  0.07097054
   0.76716529  0.94861700  0.29377359
   0.87170160  0.91457288  0.21416316
   0.94153688  0.98205019  0.26539807
   0.97371627  0.74645547  0.29553135
   0.96252969  0.86846686  0.30314732
   0.98756959  0.89168691  0.17916730
   0.08883682  0.28893500  0.28924530
   0.19975732  0.25378535  0.20976063
   0.26458880  0.32306224  0.25993767
   0.29609536  0.08734201  0.28966147
   0.28547221  0.20914909  0.29770467
   0.31054718  0.23252853  0.17386089
   0.71204202  0.55731839  0.07813968
   0.81765621  0.52148392  0.00200945
   0.88502861  0.59076401  0.05329929
   0.91441119  0.35391249  0.08083823
   0.90521552  0.47931489  0.08819722
   0.50557577  0.09387907  0.28383555
   0.90999919  0.41690697  0.18313557
   0.01319170  0.38292173  0.11052415
   0.08235023  0.45063538  0.15953266
   0.10907206  0.21354276  0.18601695
   0.08832247  0.38687113  0.17680958
   0.12788908  0.36075891  0.07484086
   0.37389964  0.89425314  0.07513429
   0.47896775  0.85863036 -0.00103751
   0.54659675  0.92771333  0.05026859
   0.57579747  0.69098185  0.07766727
   0.56675522  0.81670788  0.08507724
   0.16722894  0.43077387  0.28099028
   0.57118313  0.75408847  0.18048292
   0.67354326  0.72050859  0.10736457
   0.74378664  0.78851385  0.15669550
   0.77314073  0.55113789  0.18447377
   0.76424616  0.67745391  0.19113978
   0.79040572  0.69762964  0.07100214
   0.76740789  0.61519300  0.29340366
   0.87169436  0.58115217  0.21414001
   0.94149104  0.64868769  0.26537885
   0.97370219  0.41312504  0.29555817
   0.96255974  0.53521452  0.30312068
   0.98760209  0.55833182  0.17914988
   0.23150712  0.09021662  0.17992196
   0.34085057  0.05592794  0.10556466
   0.40536150  0.12583066  0.15416814
   0.43477643  0.88831288  0.18185626
   0.42603727  0.01425823  0.18878821
   0.45249897  0.03441513  0.06768728
   0.42877900  0.95221598  0.29096303
   0.53314257  0.91815395  0.21150537
   0.60329344  0.98585674  0.26255668
   0.63477760  0.75027002  0.29246973
   0.62414299  0.87207109  0.30038070
   0.64879602  0.89559989  0.17647475
   0.05082477  0.22016384  0.08127055
   0.15585761  0.18407227  0.00559235
   0.22327451  0.25386566  0.05630355
   0.24976517  0.01601491  0.08182866
   0.22861317  0.18876567  0.07422335
   0.84471515  0.75662055  0.28662703
   0.37399046  0.56071476  0.07517160
   0.47902629  0.52516344 -0.00104100
   0.54665385  0.59440162  0.05025484
   0.57573166  0.35747741  0.07769737
   0.56662857  0.48333572  0.08505848
   0.16741394  0.09726794  0.28092308
   0.57113426  0.42081095  0.18048843
   0.67347852  0.38735579  0.10731130
   0.74376862  0.45506061  0.15662716
   0.77312502  0.21794697  0.18456130
   0.76421373  0.34422907  0.19120532
   0.79040938  0.36423370  0.07102646
   0.76728932  0.28186047  0.29360163
   0.87177165  0.24777791  0.21421488
   0.94147061  0.31543760  0.26531398
   0.97366160  0.07974913  0.29544864
   0.96261222  0.20180475  0.30314015
   0.98756280  0.22530255  0.17915472
   0.23159247  0.75681428  0.17994870
   0.34079509  0.72247055  0.10553472
   0.40531948  0.79246983  0.15414911
   0.43469479  0.55500624  0.18187837
   0.42599981  0.68097574  0.18879154
   0.45252269  0.70089336  0.06762158
   0.42880323  0.61898592  0.29087873
   0.53309657  0.58491781  0.21146534
   0.60319638  0.65246944  0.26254394
   0.63472869  0.41704228  0.29242560
   0.62416737  0.53875466  0.30041332
   0.64887293  0.56222513  0.17640108
   0.05080993  0.88687606  0.08127272
   0.15582594  0.85097768  0.00553748
   0.22320137  0.92052298  0.05620848
   0.24976752  0.68277253  0.08195022
   0.22861553  0.85557267  0.07428362
   0.84463892  0.42340419  0.28667048
   0.08887602  0.95558817  0.28919682
   0.19968757  0.92049187  0.20976637
   0.26461588  0.98953192  0.25987676
   0.29609703  0.75402174  0.28962384
   0.28546196  0.87583326  0.29775096
   0.31060298  0.89906653  0.17381617
   0.71209319  0.22407792  0.07817984
   0.81754372  0.18822305  0.00199026
   0.88506265  0.25732524  0.05333934
   0.91440923  0.02061596  0.08082322
   0.90515496  0.14614360  0.08812758
   0.50588446  0.76049930  0.28373557
   0.90998050  0.08369719  0.18312607
   0.01317471  0.04961403  0.11047240
   0.08223308  0.11739223  0.15952948
   0.10916929  0.88024310  0.18601858
   0.08845056  0.05345493  0.17689788
   0.12790327  0.02754231  0.07474765
Direct configuration=     3
   0.40338718  0.39162349  0.13188730
   0.52156098  0.33820348  0.04399669
   0.26190972  0.40614459  0.11686283
   0.60183366  0.25132505  0.23903725
   0.71922479  0.19836224  0.15252244
   0.45597560  0.27607226  0.22061375
   0.22275877  0.52008389  0.03181370
   0.91659528  0.05891820  0.25971057
   0.07510719  0.54477794  0.01244584
   0.26308115  0.58835767  0.23603863
   0.38065058  0.53535005  0.14968938
   0.12068412  0.60323899  0.22167440
   0.88409147  0.85666905  0.02951149
   0.57799782  0.39602669  0.25679609
   0.73652976  0.88181074  0.00965958
   0.08080392  0.71818171  0.13724319
   0.19891946  0.66383410  0.04948758
   0.93550785  0.74182976  0.11873429
   0.54550214  0.19369708  0.02669406
   0.23938186  0.73313743  0.25382245
   0.39792625  0.21884631  0.00687191
   0.74241454  0.05456914  0.13488910
   0.86019056  0.00114703  0.04674163
   0.59712015  0.07881398  0.11585855
   0.94041449  0.91428073  0.24201913
   0.05766641  0.86122057  0.15533586
   0.79464186  0.93895765  0.22342266
   0.26308939  0.25499837  0.23606054
   0.38065643  0.20201589  0.14969248
   0.12068782  0.26991079  0.22167049
   0.88409320  0.52333627  0.02951064
   0.57804059  0.06266276  0.25676057
   0.73652624  0.54848218  0.00966074
   0.08080667  0.38484534  0.13724644
   0.19892373  0.33050056  0.04947961
   0.93550961  0.40849111  0.11873280
   0.54550089  0.86037197  0.02670082
   0.23942866  0.39975669  0.25378132
   0.39792724  0.88551804  0.00687004
   0.74241598  0.72122048  0.13488496
   0.86019415  0.66780337  0.04672969
   0.59712277  0.74547795  0.11586256
   0.94041338  0.58094743  0.24201788
   0.05766987  0.52788403  0.15532867
   0.79461168  0.60563052  0.22350748
   0.40338643  0.05828874  0.13188658
   0.52155838  0.00488048  0.04399657
   0.26190448  0.07283026  0.11685878
   0.60184592  0.91797630  0.23905339
   0.71922586  0.86501580  0.15252769
   0.45601688  0.94272434  0.22050144
   0.22276387  0.18674215  0.03179774
   0.91654690  0.72559122  0.25970211
   0.07510987  0.21144328  0.01244211
   0.54549555  0.52703512  0.02670771
   0.23940549  0.06645996  0.25380839
   0.39792738  0.55218627  0.00687366
   0.74240648  0.38790223  0.13489268
   0.86019130  0.33447874  0.04673544
   0.59712186  0.41213509  0.11586382
   0.94041644  0.24760501  0.24202175
   0.05767073  0.19453888  0.15533349
   0.79463161  0.27229623  0.22345896
   0.40338633  0.72496371  0.13188264
   0.52155552  0.67154788  0.04400648
   0.26190625  0.73948223  0.11686569
   0.60184325  0.58463979  0.23905057
   0.71923008  0.53168395  0.15252689
   0.45601045  0.60940116  0.22051300
   0.22275845  0.85340467  0.03180531
   0.91656644  0.39224948  0.25969435
   0.07510400  0.87811273  0.01244383
   0.26309173  0.92166849  0.23606407
   0.38065317  0.86868331  0.14968695
   0.12068052  0.93658049  0.22167838
   0.88410379  0.18999414  0.02950279
   0.57797714  0.72934534  0.25679316
   0.73652610  0.21515238  0.00965783
   0.08080190  0.05151367  0.13724043
   0.19892562  0.99715673  0.04949176
   0.93550557  0.07515847  0.11873006
   0.23120317  0.42506536  0.18189760
   0.33682928  0.38986245  0.10490922
   0.40575766  0.45906234  0.15608142
   0.43593886  0.22134799  0.18366339
   0.42572137  0.34736500  0.19137620
   0.45004170  0.36876088  0.06977085
   0.42881848  0.28578307  0.29010028
   0.53332715  0.25069305  0.21212006
   0.60351423  0.31929444  0.26383985
   0.63414517  0.08209582  0.29191351
   0.62349685  0.20719542  0.29984582
   0.64745073  0.22923079  0.17761691
   0.04954176  0.55390746  0.08297795
   0.15425049  0.51838556  0.00570146
   0.22382610  0.58742341  0.05734581
   0.25336347  0.34971975  0.08445945
   0.24039759  0.48600546  0.08898109
   0.84469898  0.08978515  0.28578256
   0.08989612  0.62276801  0.28761108
   0.19589700  0.58738541  0.20949402
   0.26489512  0.65639659  0.26105390
   0.29556252  0.41912317  0.28906843
   0.28489219  0.54421495  0.29703552
   0.30892609  0.56626828  0.17480243
   0.71092990  0.89094571  0.08006955
   0.81574169  0.85543188  0.00267000
   0.88531791  0.92445670  0.05444639
   0.91549066  0.68691158  0.08201288
   0.90514736  0.81284340  0.08979980
   0.50608279  0.42680700  0.28289999
   0.90863111  0.75119406  0.18705774
   0.01293873  0.71608517  0.11046142
   0.08292019  0.78471064  0.16173972
   0.11251056  0.54714647  0.18904930
   0.09963348  0.68355147  0.19322502
   0.12686042  0.69469537  0.07579336
   0.37244570  0.22797774  0.07716909
   0.47712956  0.19249961 -0.00022610
   0.54672912  0.26151440  0.05156081
   0.57688524  0.02390455  0.07907161
   0.56657767  0.14989017  0.08689229
   0.16755256  0.76383505  0.28004450
   0.57001419  0.08822796  0.18425865
   0.67414055  0.05323391  0.10753399
   0.74433155  0.12191605  0.15889459
   0.77450199  0.88430381  0.18647563
   0.76420780  0.01040770  0.19412721
   0.78851221  0.03171363  0.07273492
   0.76733295  0.94877552  0.29307580
   0.87191900  0.91364919  0.21493377
   0.94203127  0.98226869  0.26670365
   0.97281336  0.74498314  0.29481969
   0.96203797  0.87014821  0.30267307
   0.98607061  0.89216566  0.18045006
   0.08989350  0.28944648  0.28761692
   0.19587842  0.25407791  0.20949464
   0.26489428  0.32308392  0.26104053
   0.29553675  0.08577867  0.28905904
   0.28487701  0.21089898  0.29700604
   0.30891734  0.23295135  0.17481287
   0.71090816  0.55763981  0.08005309
   0.81573039  0.52212118  0.00267363
   0.88531081  0.59112789  0.05445555
   0.91548007  0.35357477  0.08200313
   0.90514093  0.47948287  0.08980020
   0.50602418  0.09352840  0.28291758
   0.90865670  0.41782297  0.18706687
   0.01294830  0.38271735  0.11045844
   0.08291229  0.45138083  0.16174048
   0.11250634  0.21376706  0.18904916
   0.09963554  0.35017654  0.19322408
   0.12684342  0.36139228  0.07582410
   0.37241624  0.89466456  0.07716124
   0.47711881  0.85919231 -0.00022734
   0.54674765  0.92815583  0.05155815
   0.57688487  0.69062901  0.07907499
   0.56657935  0.81660802  0.08688324
   0.16747965  0.43054439  0.28006081
   0.57001717  0.75490178  0.18425231
   0.67412638  0.71988498  0.10753280
   0.74432807  0.78861236  0.15888549
   0.77449890  0.55093651  0.18647770
   0.76421792  0.67704480  0.19412293
   0.78849590  0.69840300  0.07274184
   0.76738611  0.61542492  0.29299474
   0.87191741  0.58029931  0.21492869
   0.94202123  0.64892376  0.26669944
   0.97281027  0.41165304  0.29482557
   0.96204456  0.53683523  0.30266724
   0.98607773  0.55883016  0.18044624
   0.23118140  0.09174979  0.18188826
   0.33682077  0.05657768  0.10489727
   0.40577420  0.12572082  0.15609057
   0.43595054  0.88801390  0.18367083
   0.42571143  0.01404096  0.19137433
   0.45004780  0.03539504  0.06978217
   0.42877978  0.95246900  0.29022663
   0.53332798  0.91733875  0.21211807
   0.60350940  0.98599984  0.26384773
   0.63414696  0.74872385  0.29190770
   0.62349252  0.87384284  0.29983353
   0.64743258  0.89592795  0.17762675
   0.04954821  0.22056690  0.08298026
   0.15424305  0.18499194  0.00569984
   0.22382541  0.25411112  0.05735497
   0.25336881  0.01633905  0.08445347
   0.24040203  0.15262196  0.08897943
   0.84473455  0.75643271  0.28576257
   0.37243614  0.56128890  0.07716941
   0.47713164  0.52583231 -0.00022810
   0.54676017  0.59482984  0.05155514
   0.57687045  0.35725298  0.07908159
   0.56655160  0.48326097  0.08687913
   0.16752019  0.09716803  0.28004609
   0.57000646  0.42158328  0.18425351
   0.67411219  0.38658600  0.10752112
   0.74432412  0.45525536  0.15887051
   0.77449546  0.21763698  0.18649688
   0.76421082  0.34373784  0.19413729
   0.78849670  0.36505074  0.07274717
   0.76736013  0.28209437  0.29303812
   0.87193435  0.24695962  0.21494510
   0.94201675  0.31561127  0.26668523
   0.97280138  0.07830518  0.29480157
   0.96205606  0.20347994  0.30267150
   0.98606913  0.22556606  0.18044730
   0.23120010  0.75840394  0.18189411
   0.33680861  0.72321196  0.10489071
   0.40576499  0.79238407  0.15608640
   0.43593266  0.55468901  0.18367568
   0.42570322  0.68072138  0.19137506
   0.45005300  0.70201521  0.06976778
   0.42878509  0.61916090  0.29020816
   0.53331790  0.58402931  0.21210930
   0.60348813  0.65265729  0.26384494
   0.63413624  0.41540845  0.29189803
   0.62349786  0.54050801  0.29984068
   0.64744943  0.56258814  0.17761061
   0.04954495  0.88724615  0.08298073
   0.15423611  0.85171352  0.00568782
   0.22380939  0.92077834  0.05733414
   0.25336933  0.68302044  0.08448011
   0.24040255  0.81931417  0.08899264
   0.84471785  0.42311980  0.28577209
   0.08990209  0.95611279  0.28760630
   0.19586314  0.92075591  0.20949590
   0.26490021  0.98971002  0.26102719
   0.29553711  0.75244300  0.28905080
   0.28487477  0.87756428  0.29701618
   0.30892956  0.89959243  0.17480307
   0.71091937  0.22432943  0.08006189
   0.81570574  0.18880633  0.00266943
   0.88531827  0.25777406  0.05446433
   0.91547964  0.02024429  0.08199984
   0.90512766  0.14617983  0.08978494
   0.50609182  0.76017968  0.28289567
   0.90865261  0.08451931  0.18706479
   0.01294458  0.04938443  0.11044710
   0.08288662  0.11806986  0.16173979
   0.11252764  0.88044371  0.18904952
   0.09966361  0.01682765  0.19324342
   0.12684652  0.02807932  0.07580368
Direct configuration=     4
   0.40355361  0.39156524  0.13168009
   0.52156076  0.33814965  0.04392889
   0.26111835  0.40829459  0.11580327
   0.60183285  0.25141015  0.23892511
   0.71923037  0.19835290  0.15224556
   0.45598541  0.27610492  0.22040070
   0.22264408  0.52003218  0.03184825
   0.91667149  0.05886333  0.25951812
   0.07539741  0.54468555  0.01258825
   0.26311406  0.58844662  0.23595714
   0.38065267  0.53535446  0.14940655
   0.11996252  0.60545655  0.22059239
   0.88399166  0.85672011  0.02942273
   0.57807346  0.39595889  0.25661568
   0.73681720  0.88172215  0.00978348
   0.08092022  0.71797795  0.13711869
   0.19888200  0.66383982  0.04947264
   0.93551054  0.74181655  0.11852775
   0.54540219  0.19375300  0.02659368
   0.23946325  0.73305620  0.25366716
   0.39821447  0.21876090  0.00697981
   0.74248649  0.05451185  0.13465276
   0.86018380  0.00109463  0.04670147
   0.59707590  0.07881531  0.11565328
   0.94041571  0.91436458  0.24188005
   0.05770700  0.86123150  0.15506928
   0.79463481  0.93900459  0.22322090
   0.26312048  0.25509379  0.23597421
   0.38065722  0.20201901  0.14940896
   0.11996540  0.27212796  0.22058934
   0.88399301  0.52338794  0.02942207
   0.57810678  0.06260246  0.25658801
   0.73681446  0.54839327  0.00978438
   0.08092236  0.38464077  0.13712122
   0.19888533  0.33050707  0.04946643
   0.93551191  0.40847981  0.11852658
   0.54540121  0.86042680  0.02659894
   0.23949970  0.39968668  0.25363512
   0.39821524  0.88543226  0.00697836
   0.74248761  0.72116510  0.13464953
   0.86018660  0.66775399  0.04669218
   0.59707794  0.74548062  0.11565640
   0.94041484  0.58103201  0.24187907
   0.05770969  0.52789420  0.15506368
   0.79461131  0.60567683  0.22328697
   0.40355303  0.05822933  0.13167953
   0.52155874  0.00482511  0.04392880
   0.26111427  0.07497680  0.11580012
   0.60184240  0.91806555  0.23893768
   0.71923120  0.86500789  0.15224965
   0.45601757  0.94276097  0.22031322
   0.22264805  0.18669304  0.03183582