 243 243   0   0
  0.1311304E+02  0.1499160E-08  0.1499160E-08  0.1637130E-08  0.5000000E-15
   4000.00000000000     
  CAR 
 (Si O2)81  (P1) ~ 3x3x3Supersel (VASP)  
     11.70178391    -21.10695697  301      3.95071887      1.00000000
    -21.107  0.0000E+00  0.0000E+00
    -20.998  0.0000E+00  0.0000E+00
    -20.888  0.0000E+00  0.0000E+00
    -20.779  0.0000E+00  0.0000E+00
    -20.670  0.0000E+00  0.0000E+00
    -20.560  0.0000E+00  0.0000E+00
    -20.451  0.0000E+00  0.0000E+00
    -20.341  0.0000E+00  0.0000E+00
    -20.232  0.0000E+00  0.0000E+00
    -20.123  0.0000E+00  0.0000E+00
    -20.013  0.0000E+00  0.0000E+00
    -19.904  0.2217E-14  0.2428E-15
    -19.795  0.3108E-05  0.3418E-06
    -19.685  0.4347E+00  0.4794E-01
    -19.576  0.1704E+02  0.1927E+01
    -19.467  0.8680E+01  0.2879E+01
    -19.357  0.8152E+01  0.3772E+01
    -19.248  0.1064E+02  0.4939E+01
    -19.138  0.1333E+02  0.6400E+01
    -19.029  0.1553E+02  0.8105E+01
    -18.920  0.1881E+02  0.1017E+02
    -18.810  0.2262E+02  0.1266E+02
    -18.701  0.2624E+02  0.1554E+02
    -18.592  0.3046E+02  0.1889E+02
    -18.482  0.3399E+02  0.2262E+02
    -18.373  0.3726E+02  0.2673E+02
    -18.264  0.4059E+02  0.3119E+02
    -18.154  0.4372E+02  0.3600E+02
    -18.045  0.4829E+02  0.4132E+02
    -17.935  0.5233E+02  0.4708E+02
    -17.826  0.5445E+02  0.5308E+02
    -17.717  0.5791E+02  0.5946E+02
    -17.607  0.6119E+02  0.6620E+02
    -17.498  0.6342E+02  0.7318E+02
    -17.389  0.6584E+02  0.8044E+02
    -17.279  0.6896E+02  0.8804E+02
    -17.170  0.7183E+02  0.9596E+02
    -17.061  0.7510E+02  0.1042E+03
    -16.951  0.7632E+02  0.1127E+03
    -16.842  0.7848E+02  0.1213E+03
    -16.732  0.8028E+02  0.1302E+03
    -16.623  0.8114E+02  0.1391E+03
    -16.514  0.8404E+02  0.1484E+03
    -16.404  0.8508E+02  0.1578E+03
    -16.295  0.8474E+02  0.1671E+03
    -16.186  0.8481E+02  0.1765E+03
    -16.076  0.8462E+02  0.1858E+03
    -15.967  0.8483E+02  0.1952E+03
    -15.858  0.8454E+02  0.2045E+03
    -15.748  0.8317E+02  0.2137E+03
    -15.639  0.8089E+02  0.2226E+03
    -15.529  0.7902E+02  0.2314E+03
    -15.420  0.7606E+02  0.2398E+03
    -15.311  0.7445E+02  0.2480E+03
    -15.201  0.7178E+02  0.2559E+03
    -15.092  0.6727E+02  0.2634E+03
    -14.983  0.6264E+02  0.2703E+03
    -14.873  0.5766E+02  0.2767E+03
    -14.764  0.5419E+02  0.2827E+03
    -14.655  0.4975E+02  0.2882E+03
    -14.545  0.4592E+02  0.2933E+03
    -14.436  0.4126E+02  0.2978E+03
    -14.326  0.3661E+02  0.3019E+03
    -14.217  0.3181E+02  0.3054E+03
    -14.108  0.2795E+02  0.3085E+03
    -13.998  0.2431E+02  0.3112E+03
    -13.889  0.2134E+02  0.3136E+03
    -13.780  0.1848E+02  0.3156E+03
    -13.670  0.1624E+02  0.3174E+03
    -13.561  0.1342E+02  0.3189E+03
    -13.452  0.1112E+02  0.3202E+03
    -13.342  0.8974E+01  0.3212E+03
    -13.233  0.6860E+01  0.3219E+03
    -13.123  0.4960E+01  0.3225E+03
    -13.014  0.4100E+01  0.3229E+03
    -12.905  0.3307E+01  0.3233E+03
    -12.795  0.2068E+01  0.3235E+03
    -12.686  0.1455E+01  0.3237E+03
    -12.577  0.1000E+01  0.3238E+03
    -12.467  0.5773E+00  0.3239E+03
    -12.358  0.5822E+00  0.3239E+03
    -12.249  0.4327E+00  0.3240E+03
    -12.139  0.1354E+00  0.3240E+03
    -12.030  0.7030E-02  0.3240E+03
    -11.921  0.4224E-06  0.3240E+03
    -11.811  0.1483E-14  0.3240E+03
    -11.702  0.0000E+00  0.3240E+03
    -11.592  0.0000E+00  0.3240E+03
    -11.483  0.0000E+00  0.3240E+03
    -11.374  0.0000E+00  0.3240E+03
    -11.264  0.0000E+00  0.3240E+03
    -11.155  0.0000E+00  0.3240E+03
    -11.046  0.0000E+00  0.3240E+03
    -10.936  0.0000E+00  0.3240E+03
    -10.827  0.0000E+00  0.3240E+03
    -10.718  0.0000E+00  0.3240E+03
    -10.608  0.0000E+00  0.3240E+03
    -10.499  0.0000E+00  0.3240E+03
    -10.389  0.0000E+00  0.3240E+03
    -10.280  0.0000E+00  0.3240E+03
    -10.171  0.0000E+00  0.3240E+03
    -10.061  0.0000E+00  0.3240E+03
     -9.952  0.0000E+00  0.3240E+03
     -9.843  0.0000E+00  0.3240E+03
     -9.733  0.0000E+00  0.3240E+03
     -9.624  0.0000E+00  0.3240E+03
     -9.515  0.5095E-17  0.3240E+03
     -9.405  0.4601E-08  0.3240E+03
     -9.296  0.5313E-03  0.3240E+03
     -9.186  0.5615E-01  0.3240E+03
     -9.077  0.2638E+00  0.3240E+03
     -8.968  0.6668E+00  0.3241E+03
     -8.858  0.1615E+01  0.3243E+03
     -8.749  0.3812E+01  0.3247E+03
     -8.640  0.5358E+01  0.3253E+03
     -8.530  0.8009E+01  0.3262E+03
     -8.421  0.1004E+02  0.3273E+03
     -8.312  0.1095E+02  0.3285E+03
     -8.202  0.1531E+02  0.3302E+03
     -8.093  0.1854E+02  0.3322E+03
     -7.983  0.2106E+02  0.3345E+03
     -7.874  0.2381E+02  0.3371E+03
     -7.765  0.2576E+02  0.3400E+03
     -7.655  0.2781E+02  0.3431E+03
     -7.546  0.3071E+02  0.3464E+03
     -7.437  0.3262E+02  0.3500E+03
     -7.327  0.3476E+02  0.3539E+03
     -7.218  0.3603E+02  0.3578E+03
     -7.109  0.3712E+02  0.3619E+03
     -6.999  0.3640E+02  0.3659E+03
     -6.890  0.3758E+02  0.3701E+03
     -6.780  0.3736E+02  0.3742E+03
     -6.671  0.3831E+02  0.3784E+03
     -6.562  0.3854E+02  0.3827E+03
     -6.452  0.3990E+02  0.3871E+03
     -6.343  0.4257E+02  0.3918E+03
     -6.234  0.4258E+02  0.3965E+03
     -6.124  0.4255E+02  0.4012E+03
     -6.015  0.4407E+02  0.4061E+03
     -5.906  0.4479E+02  0.4110E+03
     -5.796  0.4556E+02  0.4160E+03
     -5.687  0.4750E+02  0.4213E+03
     -5.577  0.4884E+02  0.4267E+03
     -5.468  0.4975E+02  0.4321E+03
     -5.359  0.5131E+02  0.4378E+03
     -5.249  0.5254E+02  0.4436E+03
     -5.140  0.5459E+02  0.4496E+03
     -5.031  0.5622E+02  0.4558E+03
     -4.921  0.6007E+02  0.4625E+03
     -4.812  0.6281E+02  0.4694E+03
     -4.703  0.6538E+02  0.4766E+03
     -4.593  0.6798E+02  0.4841E+03
     -4.484  0.7118E+02  0.4919E+03
     -4.374  0.7404E+02  0.5001E+03
     -4.265  0.7661E+02  0.5086E+03
     -4.156  0.7805E+02  0.5172E+03
     -4.046  0.8156E+02  0.5262E+03
     -3.937  0.8361E+02  0.5354E+03
     -3.828  0.8505E+02  0.5448E+03
     -3.718  0.8660E+02  0.5543E+03
     -3.609  0.8685E+02  0.5639E+03
     -3.500  0.8710E+02  0.5735E+03
     -3.390  0.8853E+02  0.5833E+03
     -3.281  0.8844E+02  0.5931E+03
     -3.172  0.9127E+02  0.6031E+03
     -3.062  0.9258E+02  0.6134E+03
     -2.953  0.9478E+02  0.6238E+03
     -2.843  0.9616E+02  0.6344E+03
     -2.734  0.9943E+02  0.6454E+03
     -2.625  0.1038E+03  0.6569E+03
     -2.515  0.1062E+03  0.6686E+03
     -2.406  0.1091E+03  0.6806E+03
     -2.297  0.1140E+03  0.6932E+03
     -2.187  0.1187E+03  0.7063E+03
     -2.078  0.1226E+03  0.7198E+03
     -1.969  0.1259E+03  0.7337E+03
     -1.859  0.1310E+03  0.7482E+03
     -1.750  0.1356E+03  0.7631E+03
     -1.640  0.1391E+03  0.7785E+03
     -1.531  0.1406E+03  0.7940E+03
     -1.422  0.1436E+03  0.8098E+03
     -1.312  0.1466E+03  0.8260E+03
     -1.203  0.1493E+03  0.8425E+03
     -1.094  0.1499E+03  0.8590E+03
     -0.984  0.1513E+03  0.8757E+03
     -0.875  0.1528E+03  0.8926E+03
     -0.766  0.1543E+03  0.9096E+03
     -0.656  0.1567E+03  0.9269E+03
     -0.547  0.1582E+03  0.9444E+03
     -0.437  0.1580E+03  0.9618E+03
     -0.328  0.1570E+03  0.9792E+03
     -0.219  0.1573E+03  0.9965E+03
     -0.109  0.1580E+03  0.1014E+04
     -0.000  0.1576E+03  0.1031E+04
      0.109  0.1565E+03  0.1049E+04
      0.219  0.1548E+03  0.1066E+04
      0.328  0.1532E+03  0.1083E+04
      0.437  0.1497E+03  0.1099E+04
      0.547  0.1458E+03  0.1115E+04
      0.656  0.1433E+03  0.1131E+04
      0.766  0.1396E+03  0.1147E+04
      0.875  0.1345E+03  0.1161E+04
      0.984  0.1294E+03  0.1176E+04
      1.094  0.1221E+03  0.1189E+04
      1.203  0.1164E+03  0.1202E+04
      1.312  0.1094E+03  0.1214E+04
      1.422  0.1012E+03  0.1225E+04
      1.531  0.9073E+02  0.1235E+04
      1.640  0.8428E+02  0.1245E+04
      1.750  0.7775E+02  0.1253E+04
      1.859  0.6879E+02  0.1261E+04
      1.969  0.5986E+02  0.1267E+04
      2.078  0.5203E+02  0.1273E+04
      2.187  0.4363E+02  0.1278E+04
      2.297  0.3697E+02  0.1282E+04
      2.406  0.3110E+02  0.1286E+04
      2.515  0.2618E+02  0.1288E+04
      2.625  0.1929E+02  0.1291E+04
      2.734  0.1401E+02  0.1292E+04
      2.843  0.1051E+02  0.1293E+04
      2.953  0.7513E+01  0.1294E+04
      3.062  0.5405E+01  0.1295E+04
      3.172  0.4150E+01  0.1295E+04
      3.281  0.2970E+01  0.1296E+04
      3.390  0.1928E+01  0.1296E+04
      3.500  0.1568E+01  0.1296E+04
      3.609  0.8616E+00  0.1296E+04
      3.718  0.3634E+00  0.1296E+04
      3.828  0.6551E+00  0.1296E+04
      3.937  0.9856E+00  0.1296E+04
      4.046  0.1613E+01  0.1296E+04
      4.156  0.2439E+01  0.1297E+04
      4.265  0.4156E+01  0.1297E+04
      4.374  0.4511E+01  0.1298E+04
      4.484  0.5127E+01  0.1298E+04
      4.593  0.6143E+01  0.1299E+04
      4.703  0.6727E+01  0.1300E+04
      4.812  0.6145E+01  0.1300E+04
      4.921  0.6951E+01  0.1301E+04
      5.031  0.8869E+01  0.1302E+04
      5.140  0.1100E+02  0.1303E+04
      5.249  0.1271E+02  0.1305E+04
      5.359  0.1428E+02  0.1306E+04
      5.468  0.1488E+02  0.1308E+04
      5.577  0.1770E+02  0.1310E+04
      5.687  0.2065E+02  0.1312E+04
      5.796  0.2178E+02  0.1314E+04
      5.906  0.2272E+02  0.1317E+04
      6.015  0.2406E+02  0.1320E+04
      6.124  0.2565E+02  0.1322E+04
      6.234  0.2738E+02  0.1325E+04
      6.343  0.2969E+02  0.1329E+04
      6.452  0.3011E+02  0.1332E+04
      6.562  0.3214E+02  0.1336E+04
      6.671  0.3268E+02  0.1339E+04
      6.780  0.3681E+02  0.1343E+04
      6.890  0.3719E+02  0.1347E+04
      6.999  0.3804E+02  0.1352E+04
      7.109  0.3986E+02  0.1356E+04
      7.218  0.4278E+02  0.1361E+04
      7.327  0.4487E+02  0.1366E+04
      7.437  0.4581E+02  0.1371E+04
      7.546  0.4721E+02  0.1376E+04
      7.655  0.4986E+02  0.1381E+04
      7.765  0.5282E+02  0.1387E+04
      7.874  0.5426E+02  0.1393E+04
      7.983  0.5468E+02  0.1399E+04
      8.093  0.5846E+02  0.1406E+04
      8.202  0.6152E+02  0.1413E+04
      8.312  0.6372E+02  0.1420E+04
      8.421  0.6396E+02  0.1427E+04
      8.530  0.6834E+02  0.1434E+04
      8.640  0.7039E+02  0.1442E+04
      8.749  0.7294E+02  0.1450E+04
      8.858  0.7393E+02  0.1458E+04
      8.968  0.7753E+02  0.1467E+04
      9.077  0.7750E+02  0.1475E+04
      9.186  0.7959E+02  0.1484E+04
      9.296  0.8156E+02  0.1493E+04
      9.405  0.8405E+02  0.1502E+04
      9.515  0.8527E+02  0.1512E+04
      9.624  0.8666E+02  0.1521E+04
      9.733  0.8357E+02  0.1531E+04
      9.843  0.8281E+02  0.1540E+04
      9.952  0.8068E+02  0.1549E+04
     10.061  0.7818E+02  0.1557E+04
     10.171  0.6696E+02  0.1565E+04
     10.280  0.3006E+02  0.1568E+04
     10.389  0.4718E+00  0.1568E+04
     10.499  0.3153E-05  0.1568E+04
     10.608  0.1706E-14  0.1568E+04
     10.718  0.0000E+00  0.1568E+04
     10.827  0.0000E+00  0.1568E+04
     10.936  0.0000E+00  0.1568E+04
     11.046  0.0000E+00  0.1568E+04
     11.155  0.0000E+00  0.1568E+04
     11.264  0.0000E+00  0.1568E+04
     11.374  0.0000E+00  0.1568E+04
     11.483  0.0000E+00  0.1568E+04
     11.592  0.0000E+00  0.1568E+04
     11.702  0.0000E+00  0.1568E+04
     11.73284419    -21.09249684  301      3.86843957      1.00000000
    -21.092  0.0000E+00  0.0000E+00
    -20.983  0.0000E+00  0.0000E+00
    -20.874  0.0000E+00  0.0000E+00
    -20.764  0.0000E+00  0.0000E+00
    -20.655  0.0000E+00  0.0000E+00
    -20.545  0.0000E+00  0.0000E+00
    -20.436  0.0000E+00  0.0000E+00
    -20.327  0.0000E+00  0.0000E+00
    -20.217  0.0000E+00  0.0000E+00
    -20.108  0.0000E+00  0.0000E+00
    -19.998  0.0000E+00  0.0000E+00
    -19.889  0.3044E-17  0.3331E-18
    -19.779  0.3748E-08  0.4101E-09
    -19.670  0.4470E-03  0.4890E-04
    -19.561  0.1546E-01  0.1741E-02
    -19.451  0.1336E-01  0.3202E-02
    -19.342  0.2631E-01  0.6081E-02
    -19.232  0.1638E-01  0.7873E-02
    -19.123  0.2180E-02  0.8111E-02
    -19.014  0.2914E-01  0.1130E-01
    -18.904  0.2249E-01  0.1376E-01
    -18.795  0.2874E-01  0.1691E-01
    -18.685  0.4792E-01  0.2215E-01
    -18.576  0.6309E-01  0.2905E-01
    -18.466  0.4247E-01  0.3370E-01
    -18.357  0.3093E-01  0.3708E-01
    -18.248  0.4376E-01  0.4187E-01
    -18.138  0.7159E-01  0.4971E-01
    -18.029  0.5945E-01  0.5621E-01
    -17.919  0.7080E-01  0.6396E-01
    -17.810  0.7696E-01  0.7238E-01
    -17.701  0.7747E-01  0.8085E-01
    -17.591  0.6755E-01  0.8824E-01
    -17.482  0.5890E-01  0.9469E-01
    -17.372  0.4480E-01  0.9959E-01
    -17.263  0.9319E-01  0.1098E+00
    -17.153  0.6303E-01  0.1167E+00
    -17.044  0.6304E-01  0.1236E+00
    -16.935  0.6645E-01  0.1309E+00
    -16.825  0.7069E-01  0.1386E+00
    -16.716  0.1298E+00  0.1528E+00
    -16.606  0.9593E-01  0.1633E+00
    -16.497  0.7776E-01  0.1718E+00
    -16.388  0.6902E-01  0.1793E+00
    -16.278  0.9145E-01  0.1894E+00
    -16.169  0.8981E-01  0.1992E+00
    -16.059  0.6819E-01  0.2066E+00
    -15.950  0.7824E-01  0.2152E+00
    -15.840  0.8679E-01  0.2247E+00
    -15.731  0.1044E+00  0.2361E+00
    -15.622  0.9740E-01  0.2468E+00
    -15.512  0.9041E-01  0.2567E+00
    -15.403  0.3687E-01  0.2607E+00
    -15.293  0.5632E-01  0.2669E+00
    -15.184  0.3183E-01  0.2704E+00
    -15.075  0.4189E-01  0.2749E+00
    -14.965  0.4768E-01  0.2802E+00
    -14.856  0.5496E-01  0.2862E+00
    -14.746  0.1983E-01  0.2883E+00
    -14.637  0.6134E-01  0.2951E+00
    -14.527  0.6261E-01  0.3019E+00
    -14.418  0.2515E-01  0.3047E+00
    -14.309  0.3855E-01  0.3089E+00
    -14.199  0.2725E-01  0.3119E+00
    -14.090  0.1789E-01  0.3138E+00
    -13.980  0.1722E-02  0.3140E+00
    -13.871  0.1222E-06  0.3140E+00
    -13.762  0.1524E-02  0.3142E+00
    -13.652  0.3362E-01  0.3178E+00
    -13.543  0.2009E-01  0.3200E+00
    -13.433  0.1667E-01  0.3219E+00
    -13.324  0.1205E-02  0.3220E+00
    -13.214  0.3834E-07  0.3220E+00
    -13.105  0.1471E-15  0.3220E+00
    -12.996  0.1189E-07  0.3220E+00
    -12.886  0.7405E-03  0.3221E+00
    -12.777  0.1592E-01  0.3238E+00
    -12.667  0.1618E-02  0.3240E+00
    -12.558  0.8038E-07  0.3240E+00
    -12.448  0.4302E-15  0.3240E+00
    -12.339  0.0000E+00  0.3240E+00
    -12.230  0.0000E+00  0.3240E+00
    -12.120  0.0000E+00  0.3240E+00
    -12.011  0.0000E+00  0.3240E+00
    -11.901  0.0000E+00  0.3240E+00
    -11.792  0.0000E+00  0.3240E+00
    -11.683  0.0000E+00  0.3240E+00
    -11.573  0.0000E+00  0.3240E+00
    -11.464  0.0000E+00  0.3240E+00
    -11.354  0.0000E+00  0.3240E+00
    -11.245  0.0000E+00  0.3240E+00
    -11.135  0.0000E+00  0.3240E+00
    -11.026  0.0000E+00  0.3240E+00
    -10.917  0.0000E+00  0.3240E+00
    -10.807  0.0000E+00  0.3240E+00
    -10.698  0.0000E+00  0.3240E+00
    -10.588  0.0000E+00  0.3240E+00
    -10.479  0.0000E+00  0.3240E+00
    -10.370  0.0000E+00  0.3240E+00
    -10.260  0.0000E+00  0.3240E+00
    -10.151  0.0000E+00  0.3240E+00
    -10.041  0.0000E+00  0.3240E+00
     -9.932  0.0000E+00  0.3240E+00
     -9.822  0.0000E+00  0.3240E+00
     -9.713  0.0000E+00  0.3240E+00
     -9.604  0.0000E+00  0.3240E+00
     -9.494  0.0000E+00  0.3240E+00
     -9.385  0.0000E+00  0.3240E+00
     -9.275  0.0000E+00  0.3240E+00
     -9.166  0.0000E+00  0.3240E+00
     -9.057  0.3691E-09  0.3240E+00
     -8.947  0.1522E-03  0.3240E+00
     -8.838  0.1371E-01  0.3255E+00
     -8.728  0.4437E-02  0.3260E+00
     -8.619  0.9153E-02  0.3270E+00
     -8.509  0.1075E-01  0.3282E+00
     -8.400  0.2923E-01  0.3314E+00
     -8.291  0.1007E-01  0.3325E+00
     -8.181  0.1374E-01  0.3340E+00
     -8.072  0.3771E-02  0.3344E+00
     -7.962  0.3078E-01  0.3378E+00
     -7.853  0.2143E-01  0.3401E+00
     -7.744  0.3582E-01  0.3440E+00
     -7.634  0.3202E-01  0.3475E+00
     -7.525  0.3895E-01  0.3518E+00
     -7.415  0.2354E-01  0.3544E+00
     -7.306  0.3984E-01  0.3587E+00
     -7.196  0.2677E-01  0.3617E+00
     -7.087  0.3804E-01  0.3658E+00
     -6.978  0.5461E-01  0.3718E+00
     -6.868  0.3993E-01  0.3762E+00
     -6.759  0.5249E-01  0.3819E+00
     -6.649  0.3574E-01  0.3858E+00
     -6.540  0.2317E-01  0.3884E+00
     -6.431  0.5224E-01  0.3941E+00
     -6.321  0.5127E-01  0.3997E+00
     -6.212  0.5539E-01  0.4057E+00
     -6.102  0.3672E-01  0.4098E+00
     -5.993  0.4719E-01  0.4149E+00
     -5.883  0.4734E-01  0.4201E+00
     -5.774  0.5598E-01  0.4262E+00
     -5.665  0.4427E-01  0.4311E+00
     -5.555  0.3783E-01  0.4352E+00
     -5.446  0.4264E-01  0.4399E+00
     -5.336  0.3875E-01  0.4441E+00
     -5.227  0.5513E-01  0.4501E+00
     -5.117  0.6500E-01  0.4573E+00
     -5.008  0.6374E-01  0.4642E+00
     -4.899  0.5986E-01  0.4708E+00
     -4.789  0.6987E-01  0.4784E+00
     -4.680  0.6337E-01  0.4854E+00
     -4.570  0.8156E-01  0.4943E+00
     -4.461  0.8048E-01  0.5031E+00
     -4.352  0.8224E-01  0.5121E+00
     -4.242  0.6537E-01  0.5192E+00
     -4.133  0.9323E-01  0.5294E+00
     -4.023  0.7096E-01  0.5372E+00
     -3.914  0.8482E-01  0.5465E+00
     -3.804  0.9395E-01  0.5568E+00
     -3.695  0.8492E-01  0.5661E+00
     -3.586  0.9201E-01  0.5761E+00
     -3.476  0.8670E-01  0.5856E+00
     -3.367  0.8258E-01  0.5946E+00
     -3.257  0.8427E-01  0.6039E+00
     -3.148  0.7911E-01  0.6125E+00
     -3.039  0.9957E-01  0.6234E+00
     -2.929  0.8265E-01  0.6325E+00
     -2.820  0.1177E+00  0.6453E+00
     -2.710  0.1144E+00  0.6579E+00
     -2.601  0.1136E+00  0.6703E+00
     -2.491  0.1206E+00  0.6835E+00
     -2.382  0.1037E+00  0.6948E+00
     -2.273  0.1204E+00  0.7080E+00
     -2.163  0.1117E+00  0.7202E+00
     -2.054  0.1323E+00  0.7347E+00
     -1.944  0.1331E+00  0.7493E+00
     -1.835  0.1483E+00  0.7655E+00
     -1.726  0.1315E+00  0.7799E+00
     -1.616  0.1473E+00  0.7960E+00
     -1.507  0.1506E+00  0.8125E+00
     -1.397  0.1479E+00  0.8287E+00
     -1.288  0.1556E+00  0.8457E+00
     -1.178  0.1560E+00  0.8628E+00
     -1.069  0.1290E+00  0.8769E+00
     -0.960  0.1452E+00  0.8928E+00
     -0.850  0.1414E+00  0.9082E+00
     -0.741  0.1507E+00  0.9247E+00
     -0.631  0.1727E+00  0.9436E+00
     -0.522  0.1484E+00  0.9599E+00
     -0.413  0.1560E+00  0.9769E+00
     -0.303  0.1593E+00  0.9944E+00
     -0.194  0.1698E+00  0.1013E+01
     -0.084  0.1773E+00  0.1032E+01
      0.025  0.1579E+00  0.1050E+01
      0.135  0.1473E+00  0.1066E+01
      0.244  0.1381E+00  0.1081E+01
      0.353  0.1526E+00  0.1098E+01
      0.463  0.1469E+00  0.1114E+01
      0.572  0.1383E+00  0.1129E+01
      0.682  0.1365E+00  0.1144E+01
      0.791  0.1389E+00  0.1159E+01
      0.900  0.1462E+00  0.1175E+01
      1.010  0.1486E+00  0.1191E+01
      1.119  0.1281E+00  0.1205E+01
      1.229  0.9196E-01  0.1215E+01
      1.338  0.7647E-01  0.1224E+01
      1.448  0.7139E-01  0.1231E+01
      1.557  0.9098E-01  0.1241E+01
      1.666  0.7051E-01  0.1249E+01
      1.776  0.5191E-01  0.1255E+01
      1.885  0.6512E-01  0.1262E+01
      1.995  0.5282E-01  0.1268E+01
      2.104  0.5502E-01  0.1274E+01
      2.213  0.5048E-01  0.1279E+01
      2.323  0.7424E-02  0.1280E+01
      2.432  0.2062E-01  0.1282E+01
      2.542  0.3144E-01  0.1286E+01
      2.651  0.3674E-01  0.1290E+01
      2.761  0.1892E-01  0.1292E+01
      2.870  0.1987E-02  0.1292E+01
      2.979  0.1372E-01  0.1294E+01
      3.089  0.4408E-02  0.1294E+01
      3.198  0.1337E-05  0.1294E+01
      3.308  0.5028E-13  0.1294E+01
      3.417  0.1051E-07  0.1294E+01
      3.527  0.7023E-03  0.1294E+01
      3.636  0.1589E-01  0.1296E+01
      3.745  0.1691E-02  0.1296E+01
      3.855  0.9007E-07  0.1296E+01
      3.964  0.5195E-15  0.1296E+01
      4.074  0.0000E+00  0.1296E+01
      4.183  0.0000E+00  0.1296E+01
      4.292  0.2852E-09  0.1296E+01
      4.402  0.1343E-03  0.1296E+01
      4.511  0.1346E-01  0.1297E+01
      4.621  0.4682E-02  0.1298E+01
      4.730  0.2269E-03  0.1298E+01
      4.840  0.1460E-01  0.1300E+01
      4.949  0.1923E-01  0.1302E+01
      5.058  0.2011E-01  0.1304E+01
      5.168  0.1226E-01  0.1305E+01
      5.277  0.2043E-01  0.1308E+01
      5.387  0.4530E-02  0.1308E+01
      5.496  0.5993E-03  0.1308E+01
      5.605  0.1612E-01  0.1310E+01
      5.715  0.1775E-01  0.1312E+01
      5.824  0.2672E-01  0.1315E+01
      5.934  0.2472E-01  0.1317E+01
      6.043  0.7823E-02  0.1318E+01
      6.153  0.2111E-01  0.1321E+01
      6.262  0.1347E-01  0.1322E+01
      6.371  0.2177E-01  0.1324E+01
      6.481  0.3603E-01  0.1328E+01
      6.590  0.3279E-01  0.1332E+01
      6.700  0.3471E-01  0.1336E+01
      6.809  0.3844E-01  0.1340E+01
      6.918  0.5025E-01  0.1345E+01
      7.028  0.2759E-01  0.1348E+01
      7.137  0.2725E-01  0.1351E+01
      7.247  0.4036E-01  0.1356E+01
      7.356  0.6221E-01  0.1363E+01
      7.466  0.3653E-01  0.1367E+01
      7.575  0.3455E-01  0.1370E+01
      7.684  0.5762E-01  0.1377E+01
      7.794  0.5426E-01  0.1383E+01
      7.903  0.5124E-01  0.1388E+01
      8.013  0.6236E-01  0.1395E+01
      8.122  0.7232E-01  0.1403E+01
      8.231  0.6069E-01  0.1410E+01
      8.341  0.7995E-01  0.1418E+01
      8.450  0.6615E-01  0.1426E+01
      8.560  0.7615E-01  0.1434E+01
      8.669  0.7395E-01  0.1442E+01
      8.779  0.8766E-01  0.1452E+01
      8.888  0.8151E-01  0.1461E+01
      8.997  0.7990E-01  0.1469E+01
      9.107  0.9459E-01  0.1480E+01
      9.216  0.7207E-01  0.1488E+01
      9.326  0.6916E-01  0.1495E+01
      9.435  0.8803E-01  0.1505E+01
      9.544  0.7104E-01  0.1513E+01
      9.654  0.7680E-01  0.1521E+01
      9.763  0.8685E-01  0.1530E+01
      9.873  0.7251E-01  0.1538E+01
      9.982  0.7257E-01  0.1546E+01
     10.092  0.7105E-01  0.1554E+01
     10.201  0.8032E-01  0.1563E+01
     10.310  0.4612E-01  0.1568E+01
     10.420  0.5724E-03  0.1568E+01
     10.529  0.3915E-08  0.1568E+01
     10.639  0.4059E-17  0.1568E+01
     10.748  0.0000E+00  0.1568E+01
     10.858  0.0000E+00  0.1568E+01
     10.967  0.0000E+00  0.1568E+01
     11.076  0.0000E+00  0.1568E+01
     11.186  0.0000E+00  0.1568E+01
     11.295  0.0000E+00  0.1568E+01
     11.405  0.0000E+00  0.1568E+01
     11.514  0.0000E+00  0.1568E+01
     11.623  0.0000E+00  0.1568E+01
     11.733  0.0000E+00  0.1568E+01
