  243  243 1000    1
  0.1311304E+02  0.1499160E-08  0.1499160E-08  0.1637130E-08  0.5000000E-15
   4000.00000000000     
  CAR 
 (Si O2)81  (P1) ~ 3x3x3Supersel (VASP)  
   1296      1    784
 
  0.0000000E+00  0.0000000E+00  0.0000000E+00  0.1000000E+01
    1      -19.600436
    2      -19.445049
    3      -19.417563
    4      -19.286295
    5      -19.064666
    6      -19.034227
    7      -18.917999
    8      -18.877707
    9      -18.789884
   10      -18.717324
   11      -18.688711
   12      -18.686806
   13      -18.654045
   14      -18.605790
   15      -18.586344
   16      -18.530291
   17      -18.506639
   18      -18.386396
   19      -18.362374
   20      -18.324757
   21      -18.265039
   22      -18.218336
   23      -18.187410
   24      -18.169126
   25      -18.137572
   26      -18.126694
   27      -18.116549
   28      -18.037220
   29      -18.017458
   30      -17.986615
   31      -17.959054
   32      -17.940356
   33      -17.902078
   34      -17.864896
   35      -17.856286
   36      -17.828588
   37      -17.810601
   38      -17.768167
   39      -17.732975
   40      -17.721125
   41      -17.699501
   42      -17.683592
   43      -17.655319
   44      -17.619736
   45      -17.570354
   46      -17.542092
   47      -17.507703
   48      -17.486964
   49      -17.428433
   50      -17.368080
   51      -17.344217
   52      -17.331192
   53      -17.313347
   54      -17.289767
   55      -17.282023
   56      -17.260161
   57      -17.201809
   58      -17.184954
   59      -17.156502
   60      -17.098343
   61      -17.081371
   62      -17.043335
   63      -17.019989
   64      -17.013329
   65      -16.990799
   66      -16.922103
   67      -16.890980
   68      -16.868847
   69      -16.832869
   70      -16.807578
   71      -16.803393
   72      -16.783459
   73      -16.779980
   74      -16.756591
   75      -16.751837
   76      -16.737428
   77      -16.720372
   78      -16.701192
   79      -16.665369
   80      -16.652183
   81      -16.632805
   82      -16.624174
   83      -16.578388
   84      -16.557111
   85      -16.536662
   86      -16.520949
   87      -16.476729
   88      -16.436547
   89      -16.403544
   90      -16.390534
   91      -16.371482
   92      -16.354798
   93      -16.328780
   94      -16.290248
   95      -16.276620
   96      -16.270369
   97      -16.247064
   98      -16.216670
   99      -16.196822
  100      -16.171110
  101      -16.152864
  102      -16.105677
  103      -16.093281
  104      -16.041792
  105      -16.029879
  106      -16.005072
  107      -15.976637
  108      -15.965114
  109      -15.908106
  110      -15.903259
  111      -15.876334
  112      -15.850783
  113      -15.842801
  114      -15.816860
  115      -15.798572
  116      -15.778281
  117      -15.765905
  118      -15.736618
  119      -15.721899
  120      -15.702004
  121      -15.697869
  122      -15.648479
  123      -15.627994
  124      -15.615674
  125      -15.612763
  126      -15.591839
  127      -15.551415
  128      -15.545475
  129      -15.508693
  130      -15.482621
  131      -15.379383
  132      -15.355770
  133      -15.330740
  134      -15.303125
  135      -15.220274
  136      -15.152791
  137      -15.145981
  138      -15.053180
  139      -15.046116
  140      -15.002972
  141      -14.929133
  142      -14.913313
  143      -14.885227
  144      -14.842777
  145      -14.709410
  146      -14.673818
  147      -14.649764
  148      -14.635689
  149      -14.631664
  150      -14.591638
  151      -14.565851
  152      -14.487166
  153      -14.399846
  154      -14.359061
  155      -14.307425
  156      -14.242675
  157      -14.136262
  158      -13.703867
  159      -13.695950
  160      -13.607079
  161      -13.486520
  162      -12.824475
  163       -8.862467
  164       -8.619015
  165       -8.460734
  166       -8.421895
  167       -8.265658
  168       -8.038610
  169       -8.001755
  170       -7.895924
  171       -7.811402
  172       -7.793567
  173       -7.701252
  174       -7.650983
  175       -7.589899
  176       -7.545036
  177       -7.496447
  178       -7.379795
  179       -7.352173
  180       -7.303119
  181       -7.221492
  182       -7.143722
  183       -7.088340
  184       -7.072115
  185       -7.042213
  186       -7.004710
  187       -6.941341
  188       -6.885192
  189       -6.851857
  190       -6.820085
  191       -6.781964
  192       -6.731550
  193       -6.694566
  194       -6.576438
  195       -6.519202
  196       -6.479850
  197       -6.444825
  198       -6.422982
  199       -6.371534
  200       -6.323957
  201       -6.306751
  202       -6.258211
  203       -6.231835
  204       -6.187533
  205       -6.119786
  206       -6.065872
  207       -6.042079
  208       -5.977605
  209       -5.966144
  210       -5.894347
  211       -5.868429
  212       -5.836782
  213       -5.803976
  214       -5.755540
  215       -5.715719
  216       -5.672299
  217       -5.594666
  218       -5.567066
  219       -5.506208
  220       -5.483559
  221       -5.404001
  222       -5.351876
  223       -5.322850
  224       -5.280915
  225       -5.243738
  226       -5.216227
  227       -5.168810
  228       -5.151929
  229       -5.142487
  230       -5.066978
  231       -5.050248
  232       -5.022339
  233       -5.008702
  234       -4.963699
  235       -4.927377
  236       -4.890354
  237       -4.858892
  238       -4.851425
  239       -4.804777
  240       -4.788121
  241       -4.746083
  242       -4.706428
  243       -4.679127
  244       -4.655344
  245       -4.636012
  246       -4.632436
  247       -4.583199
  248       -4.559367
  249       -4.526088
  250       -4.523308
  251       -4.481201
  252       -4.468247
  253       -4.433617
  254       -4.407524
  255       -4.394016
  256       -4.376539
  257       -4.331603
  258       -4.318659
  259       -4.257358
  260       -4.240829
  261       -4.217230
  262       -4.204405
  263       -4.195371
  264       -4.163083
  265       -4.131434
  266       -4.126530
  267       -4.077376
  268       -4.049931
  269       -4.028638
  270       -3.996796
  271       -3.974759
  272       -3.951665
  273       -3.920315
  274       -3.910705
  275       -3.882788
  276       -3.874572
  277       -3.858811
  278       -3.841899
  279       -3.792557
  280       -3.772054
  281       -3.751074
  282       -3.726989
  283       -3.704373
  284       -3.684632
  285       -3.659470
  286       -3.646411
  287       -3.638781
  288       -3.590751
  289       -3.574027
  290       -3.556537
  291       -3.528499
  292       -3.494348
  293       -3.483977
  294       -3.460931
  295       -3.445104
  296       -3.427514
  297       -3.373382
  298       -3.361345
  299       -3.344760
  300       -3.321024
  301       -3.278892
  302       -3.264991
  303       -3.246561
  304       -3.234563
  305       -3.186193
  306       -3.164117
  307       -3.143482
  308       -3.114114
  309       -3.097300
  310       -3.082750
  311       -3.060622
  312       -3.048192
  313       -3.032903
  314       -2.991299
  315       -2.956440
  316       -2.938577
  317       -2.931669
  318       -2.896358
  319       -2.884497
  320       -2.870115
  321       -2.859358
  322       -2.841152
  323       -2.815757
  324       -2.810907
  325       -2.785253
  326       -2.779722
  327       -2.756466
  328       -2.738475
  329       -2.706147
  330       -2.698821
  331       -2.688414
  332       -2.671277
  333       -2.650585
  334       -2.615201
  335       -2.605098
  336       -2.592908
  337       -2.579157
  338       -2.570207
  339       -2.564765
  340       -2.526773
  341       -2.509504
  342       -2.503286
  343       -2.486787
  344       -2.449224
  345       -2.422596
  346       -2.419775
  347       -2.396206
  348       -2.385303
  349       -2.360792
  350       -2.347399
  351       -2.319936
  352       -2.312257
  353       -2.306732
  354       -2.286957
  355       -2.279261
  356       -2.222458
  357       -2.217487
  358       -2.209494
  359       -2.185608
  360       -2.171534
  361       -2.163654
  362       -2.137473
  363       -2.126329
  364       -2.105101
  365       -2.098573
  366       -2.086411
  367       -2.066711
  368       -2.061794
  369       -2.028230
  370       -2.014839
  371       -2.003971
  372       -1.993489
  373       -1.970645
  374       -1.959476
  375       -1.945043
  376       -1.933326
  377       -1.913790
  378       -1.906183
  379       -1.894686
  380       -1.881814
  381       -1.871770
  382       -1.852949
  383       -1.841479
  384       -1.828776
  385       -1.805096
  386       -1.796377
  387       -1.769723
  388       -1.749403
  389       -1.734279
  390       -1.727599
  391       -1.715475
  392       -1.707660
  393       -1.701216
  394       -1.695306
  395       -1.669835
  396       -1.649739
  397       -1.642470
  398       -1.625534
  399       -1.604724
  400       -1.593691
  401       -1.577614
  402       -1.560346
  403       -1.553529
  404       -1.541754
  405       -1.521683
  406       -1.519664
  407       -1.502601
  408       -1.496925
  409       -1.484212
  410       -1.465440
  411       -1.445504
  412       -1.429164
  413       -1.414446
  414       -1.406365
  415       -1.399317
  416       -1.392767
  417       -1.368211
  418       -1.347737
  419       -1.342024
  420       -1.330133
  421       -1.314359
  422       -1.298677
  423       -1.291486
  424       -1.273824
  425       -1.268703
  426       -1.264233
  427       -1.245179
  428       -1.239504
  429       -1.231131
  430       -1.201341
  431       -1.189974
  432       -1.180158
  433       -1.168246
  434       -1.138677
  435       -1.125844
  436       -1.118300
  437       -1.106123
  438       -1.079675
  439       -1.063624
  440       -1.049924
  441       -1.041835
  442       -1.021018
  443       -1.012355
  444       -1.000521
  445       -0.984206
  446       -0.968522
  447       -0.958861
  448       -0.946414
  449       -0.927646
  450       -0.921078
  451       -0.906016
  452       -0.897019
  453       -0.873376
  454       -0.851245
  455       -0.842062
  456       -0.828116
  457       -0.823518
  458       -0.798328
  459       -0.795810
  460       -0.770346
  461       -0.766600
  462       -0.747518
  463       -0.739564
  464       -0.726306
  465       -0.717353
  466       -0.698704
  467       -0.690794
  468       -0.680440
  469       -0.666802
  470       -0.658254
  471       -0.650908
  472       -0.642112
  473       -0.631464
  474       -0.605803
  475       -0.597570
  476       -0.574794
  477       -0.571972
  478       -0.559746
  479       -0.549863
  480       -0.525240
  481       -0.509263
  482       -0.498843
  483       -0.486385
  484       -0.476374
  485       -0.450748
  486       -0.443108
  487       -0.442807
  488       -0.434226
  489       -0.408911
  490       -0.401521
  491       -0.391729
  492       -0.376537
  493       -0.345530
  494       -0.334297
  495       -0.328776
  496       -0.324537
  497       -0.310300
  498       -0.305190
  499       -0.289706
  500       -0.284348
  501       -0.262787
  502       -0.248772
  503       -0.241724
  504       -0.232125
  505       -0.221767
  506       -0.210284
  507       -0.190629
  508       -0.178136
  509       -0.163120
  510       -0.157467
  511       -0.144647
  512       -0.135037
  513       -0.127425
  514       -0.112311
  515       -0.106387
  516       -0.102652
  517       -0.086000
  518       -0.066299
  519       -0.054662
  520       -0.040489
  521       -0.023510
  522       -0.014805
  523       -0.007785
  524        0.010945
  525        0.020649
  526        0.036599
  527        0.049863
  528        0.056482
  529        0.063233
  530        0.076345
  531        0.101555
  532        0.110604
  533        0.127984
  534        0.141424
  535        0.165830
  536        0.181146
  537        0.188568
  538        0.203378
  539        0.206446
  540        0.235282
  541        0.246490
  542        0.260058
  543        0.281089
  544        0.288232
  545        0.293791
  546        0.300215
  547        0.320165
  548        0.324565
  549        0.357745
  550        0.365088
  551        0.382850
  552        0.389832
  553        0.402875
  554        0.411217
  555        0.431396
  556        0.442638
  557        0.456644
  558        0.473505
  559        0.492215
  560        0.499071
  561        0.515918
  562        0.523655
  563        0.537412
  564        0.553312
  565        0.582278
  566        0.591515
  567        0.603553
  568        0.619437
  569        0.635685
  570        0.656932
  571        0.662902
  572        0.677018
  573        0.678559
  574        0.714949
  575        0.717666
  576        0.729362
  577        0.749249
  578        0.766073
  579        0.782231
  580        0.794993
  581        0.802213
  582        0.824466
  583        0.831548
  584        0.840353
  585        0.849384
  586        0.866744
  587        0.898186
  588        0.908092
  589        0.913183
  590        0.920192
  591        0.948439
  592        0.954123
  593        0.969870
  594        0.988090
  595        0.994932
  596        1.003479
  597        1.021204
  598        1.035191
  599        1.048770
  600        1.066047
  601        1.074227
  602        1.094956
  603        1.123027
  604        1.133327
  605        1.152799
  606        1.183353
  607        1.194565
  608        1.224578
  609        1.255645
  610        1.273331
  611        1.297878
  612        1.341452
  613        1.358239
  614        1.367491
  615        1.415865
  616        1.440931
  617        1.476608
  618        1.494846
  619        1.514719
  620        1.544268
  621        1.547762
  622        1.572982
  623        1.583571
  624        1.614983
  625        1.668340
  626        1.704730
  627        1.756081
  628        1.779561
  629        1.806159
  630        1.846086
  631        1.856905
  632        1.906033
  633        1.960437
  634        1.981753
  635        2.012826
  636        2.051855
  637        2.095559
  638        2.127376
  639        2.159171
  640        2.197927
  641        2.411712
  642        2.440213
  643        2.532757
  644        2.566887
  645        2.616190
  646        2.715340
  647        2.954585
  648        3.589062
  649        4.488109
  650        4.809544
  651        4.922575
  652        4.996074
  653        5.156378
  654        5.253078
  655        5.561168
  656        5.677988
  657        5.779375
  658        5.829210
  659        5.914963
  660        6.083217
  661        6.170267
  662        6.331619
  663        6.389505
  664        6.434380
  665        6.504307
  666        6.548003
  667        6.636448
  668        6.683631
  669        6.725300
  670        6.796332
  671        6.827027
  672        6.871652
  673        6.906864
  674        6.948707
  675        7.052052
  676        7.130367
  677        7.173520
  678        7.230658
  679        7.275293
  680        7.305815
  681        7.317993
  682        7.360905
  683        7.397571
  684        7.478428
  685        7.551518
  686        7.597613
  687        7.607231
  688        7.636245
  689        7.691539
  690        7.740420
  691        7.766907
  692        7.789667
  693        7.851868
  694        7.854952
  695        7.925598
  696        7.968566
  697        7.982450
  698        8.001468
  699        8.047763
  700        8.065309
  701        8.086287
  702        8.119810
  703        8.150942
  704        8.201232
  705        8.222750
  706        8.244620
  707        8.282051
  708        8.314996
  709        8.316662
  710        8.334308
  711        8.376069
  712        8.427501
  713        8.444727
  714        8.453669
  715        8.503825
  716        8.531117
  717        8.534357
  718        8.570858
  719        8.605311
  720        8.629636
  721        8.655053
  722        8.683790
  723        8.707642
  724        8.728944
  725        8.733825
  726        8.768420
  727        8.796757
  728        8.829736
  729        8.836647
  730        8.863400
  731        8.901795
  732        8.911923
  733        8.941983
  734        8.971026
  735        9.002910
  736        9.024851
  737        9.029619
  738        9.046610
  739        9.057527
  740        9.094111
  741        9.129059
  742        9.157240
  743        9.185159
  744        9.212942
  745        9.219565
  746        9.284286
  747        9.313238
  748        9.316651
  749        9.339346
  750        9.376837
  751        9.393963
  752        9.418861
  753        9.424523
  754        9.466136
  755        9.492549
  756        9.502694
  757        9.564363
  758        9.579261
  759        9.617039
  760        9.632236
  761        9.657960
  762        9.671890
  763        9.691953
  764        9.732581
  765        9.755840
  766        9.763702
  767        9.783769
  768        9.816906
  769        9.835099
  770        9.889881
  771        9.925839
  772        9.946126
  773        9.975874
  774        9.986579
  775       10.010540
  776       10.019849
  777       10.079770
  778       10.110009
  779       10.137249
  780       10.149497
  781       10.187514
  782       10.201817
  783       10.220612
  784       10.240783
