 243 243   0   0
  0.1311304E+02  0.1499160E-08  0.1499160E-08  0.1637130E-08  0.5000000E-15
   4000.00000000000     
  CAR 
 (Si O2)81  (P1) ~ 3x3x3Supersel (VASP)  
     11.65078011    -21.55386214  301      3.23300815      1.00000000
    -21.554  0.0000E+00  0.0000E+00
    -21.443  0.0000E+00  0.0000E+00
    -21.332  0.0000E+00  0.0000E+00
    -21.222  0.0000E+00  0.0000E+00
    -21.111  0.0000E+00  0.0000E+00
    -21.000  0.0000E+00  0.0000E+00
    -20.890  0.0000E+00  0.0000E+00
    -20.779  0.0000E+00  0.0000E+00
    -20.668  0.0000E+00  0.0000E+00
    -20.558  0.0000E+00  0.0000E+00
    -20.447  0.0000E+00  0.0000E+00
    -20.336  0.3026E-14  0.3278E-15
    -20.226  0.3240E-05  0.3552E-06
    -20.115  0.4351E+00  0.4795E-01
    -20.004  0.1694E+02  0.1915E+01
    -19.894  0.8707E+01  0.2870E+01
    -19.783  0.7999E+01  0.3746E+01
    -19.672  0.9727E+01  0.4813E+01
    -19.562  0.1275E+02  0.6211E+01
    -19.451  0.1579E+02  0.7944E+01
    -19.340  0.1849E+02  0.9974E+01
    -19.230  0.2102E+02  0.1228E+02
    -19.119  0.2438E+02  0.1496E+02
    -19.008  0.2830E+02  0.1807E+02
    -18.897  0.3107E+02  0.2148E+02
    -18.787  0.3564E+02  0.2540E+02
    -18.676  0.3962E+02  0.2976E+02
    -18.565  0.4297E+02  0.3449E+02
    -18.455  0.4570E+02  0.3952E+02
    -18.344  0.4936E+02  0.4495E+02
    -18.233  0.5257E+02  0.5073E+02
    -18.123  0.5726E+02  0.5704E+02
    -18.012  0.6052E+02  0.6370E+02
    -17.901  0.6416E+02  0.7077E+02
    -17.791  0.6831E+02  0.7830E+02
    -17.680  0.6908E+02  0.8591E+02
    -17.569  0.7224E+02  0.9386E+02
    -17.459  0.7436E+02  0.1021E+03
    -17.348  0.7519E+02  0.1104E+03
    -17.237  0.7838E+02  0.1190E+03
    -17.127  0.8012E+02  0.1278E+03
    -17.016  0.8084E+02  0.1367E+03
    -16.905  0.8415E+02  0.1460E+03
    -16.795  0.8562E+02  0.1555E+03
    -16.684  0.8492E+02  0.1648E+03
    -16.573  0.8556E+02  0.1743E+03
    -16.462  0.8672E+02  0.1838E+03
    -16.352  0.8566E+02  0.1933E+03
    -16.241  0.8425E+02  0.2026E+03
    -16.130  0.8596E+02  0.2121E+03
    -16.020  0.8327E+02  0.2213E+03
    -15.909  0.7962E+02  0.2301E+03
    -15.798  0.7626E+02  0.2385E+03
    -15.688  0.7529E+02  0.2468E+03
    -15.577  0.7162E+02  0.2547E+03
    -15.466  0.6896E+02  0.2623E+03
    -15.356  0.6533E+02  0.2696E+03
    -15.245  0.5916E+02  0.2761E+03
    -15.134  0.5376E+02  0.2821E+03
    -15.024  0.5064E+02  0.2877E+03
    -14.913  0.4674E+02  0.2928E+03
    -14.802  0.4083E+02  0.2974E+03
    -14.692  0.3662E+02  0.3014E+03
    -14.581  0.3137E+02  0.3049E+03
    -14.470  0.2807E+02  0.3080E+03
    -14.360  0.2611E+02  0.3109E+03
    -14.249  0.2217E+02  0.3134E+03
    -14.138  0.1874E+02  0.3154E+03
    -14.027  0.1605E+02  0.3172E+03
    -13.917  0.1285E+02  0.3186E+03
    -13.806  0.9912E+01  0.3197E+03
    -13.695  0.8200E+01  0.3207E+03
    -13.585  0.6903E+01  0.3214E+03
    -13.474  0.5602E+01  0.3221E+03
    -13.363  0.3511E+01  0.3224E+03
    -13.253  0.3424E+01  0.3228E+03
    -13.142  0.3000E+01  0.3232E+03
    -13.031  0.1615E+01  0.3233E+03
    -12.921  0.1195E+01  0.3235E+03
    -12.810  0.1459E+01  0.3236E+03
    -12.699  0.7203E+00  0.3237E+03
    -12.589  0.4973E+00  0.3238E+03
    -12.478  0.5441E+00  0.3238E+03
    -12.367  0.3346E+00  0.3239E+03
    -12.257  0.3577E+00  0.3239E+03
    -12.146  0.1714E+00  0.3239E+03
    -12.035  0.1886E+00  0.3239E+03
    -11.925  0.1955E+00  0.3240E+03
    -11.814  0.9773E-01  0.3240E+03
    -11.703  0.4762E-01  0.3240E+03
    -11.592  0.6577E-01  0.3240E+03
    -11.482  0.6427E-01  0.3240E+03
    -11.371  0.1798E-02  0.3240E+03
    -11.260  0.2337E-07  0.3240E+03
    -11.150  0.2598E-16  0.3240E+03
    -11.039  0.0000E+00  0.3240E+03
    -10.928  0.0000E+00  0.3240E+03
    -10.818  0.0000E+00  0.3240E+03
    -10.707  0.0000E+00  0.3240E+03
    -10.596  0.0000E+00  0.3240E+03
    -10.486  0.0000E+00  0.3240E+03
    -10.375  0.2103E-11  0.3240E+03
    -10.264  0.1746E-04  0.3240E+03
    -10.154  0.1606E-01  0.3240E+03
    -10.043  0.8381E-01  0.3240E+03
     -9.932  0.1170E+00  0.3240E+03
     -9.822  0.9030E-01  0.3240E+03
     -9.711  0.7300E-01  0.3240E+03
     -9.600  0.8302E-01  0.3241E+03
     -9.490  0.3707E+00  0.3241E+03
     -9.379  0.9134E+00  0.3242E+03
     -9.268  0.1828E+01  0.3244E+03
     -9.157  0.2900E+01  0.3247E+03
     -9.047  0.4788E+01  0.3252E+03
     -8.936  0.6328E+01  0.3259E+03
     -8.825  0.8132E+01  0.3268E+03
     -8.715  0.8749E+01  0.3278E+03
     -8.604  0.1174E+02  0.3291E+03
     -8.493  0.1471E+02  0.3307E+03
     -8.383  0.1694E+02  0.3326E+03
     -8.272  0.1798E+02  0.3346E+03
     -8.161  0.2081E+02  0.3369E+03
     -8.051  0.2419E+02  0.3395E+03
     -7.940  0.2681E+02  0.3425E+03
     -7.829  0.2932E+02  0.3457E+03
     -7.719  0.3109E+02  0.3491E+03
     -7.608  0.3272E+02  0.3527E+03
     -7.497  0.3516E+02  0.3566E+03
     -7.387  0.3694E+02  0.3607E+03
     -7.276  0.3877E+02  0.3650E+03
     -7.165  0.3910E+02  0.3693E+03
     -7.055  0.3807E+02  0.3735E+03
     -6.944  0.3925E+02  0.3778E+03
     -6.833  0.3999E+02  0.3822E+03
     -6.722  0.4060E+02  0.3867E+03
     -6.612  0.4082E+02  0.3912E+03
     -6.501  0.4219E+02  0.3959E+03
     -6.390  0.4326E+02  0.4006E+03
     -6.280  0.4400E+02  0.4055E+03
     -6.169  0.4659E+02  0.4106E+03
     -6.058  0.4773E+02  0.4159E+03
     -5.948  0.4785E+02  0.4212E+03
     -5.837  0.5026E+02  0.4267E+03
     -5.726  0.5026E+02  0.4323E+03
     -5.616  0.5204E+02  0.4380E+03
     -5.505  0.5405E+02  0.4440E+03
     -5.394  0.5450E+02  0.4500E+03
     -5.284  0.5791E+02  0.4564E+03
     -5.173  0.5870E+02  0.4629E+03
     -5.062  0.6157E+02  0.4697E+03
     -4.952  0.6318E+02  0.4766E+03
     -4.841  0.6567E+02  0.4839E+03
     -4.730  0.6930E+02  0.4915E+03
     -4.619  0.7219E+02  0.4995E+03
     -4.509  0.7443E+02  0.5077E+03
     -4.398  0.7598E+02  0.5161E+03
     -4.287  0.7933E+02  0.5248E+03
     -4.177  0.8115E+02  0.5338E+03
     -4.066  0.8248E+02  0.5429E+03
     -3.955  0.8417E+02  0.5522E+03
     -3.845  0.8727E+02  0.5618E+03
     -3.734  0.8893E+02  0.5716E+03
     -3.623  0.8951E+02  0.5815E+03
     -3.513  0.9164E+02  0.5916E+03
     -3.402  0.9226E+02  0.6018E+03
     -3.291  0.9278E+02  0.6120E+03
     -3.181  0.9414E+02  0.6224E+03
     -3.070  0.9549E+02  0.6330E+03
     -2.959  0.9906E+02  0.6439E+03
     -2.849  0.1008E+03  0.6550E+03
     -2.738  0.1051E+03  0.6666E+03
     -2.627  0.1091E+03  0.6786E+03
     -2.517  0.1132E+03  0.6911E+03
     -2.406  0.1161E+03  0.7039E+03
     -2.295  0.1207E+03  0.7172E+03
     -2.184  0.1254E+03  0.7311E+03
     -2.074  0.1295E+03  0.7453E+03
     -1.963  0.1335E+03  0.7601E+03
     -1.852  0.1381E+03  0.7753E+03
     -1.742  0.1389E+03  0.7906E+03
     -1.631  0.1428E+03  0.8064E+03
     -1.520  0.1467E+03  0.8226E+03
     -1.410  0.1482E+03  0.8389E+03
     -1.299  0.1499E+03  0.8555E+03
     -1.188  0.1528E+03  0.8723E+03
     -1.078  0.1547E+03  0.8894E+03
     -0.967  0.1553E+03  0.9065E+03
     -0.856  0.1564E+03  0.9238E+03
     -0.746  0.1573E+03  0.9412E+03
     -0.635  0.1591E+03  0.9587E+03
     -0.524  0.1585E+03  0.9762E+03
     -0.414  0.1586E+03  0.9937E+03
     -0.303  0.1600E+03  0.1011E+04
     -0.192  0.1589E+03  0.1029E+04
     -0.082  0.1573E+03  0.1046E+04
      0.029  0.1552E+03  0.1063E+04
      0.140  0.1534E+03  0.1080E+04
      0.251  0.1509E+03  0.1097E+04
      0.361  0.1481E+03  0.1113E+04
      0.472  0.1435E+03  0.1129E+04
      0.583  0.1381E+03  0.1144E+04
      0.693  0.1337E+03  0.1159E+04
      0.804  0.1278E+03  0.1173E+04
      0.915  0.1221E+03  0.1187E+04
      1.025  0.1152E+03  0.1199E+04
      1.136  0.1092E+03  0.1211E+04
      1.247  0.1024E+03  0.1223E+04
      1.357  0.9289E+02  0.1233E+04
      1.468  0.8485E+02  0.1242E+04
      1.579  0.7875E+02  0.1251E+04
      1.689  0.7054E+02  0.1259E+04
      1.800  0.6392E+02  0.1266E+04
      1.911  0.5600E+02  0.1272E+04
      2.021  0.4426E+02  0.1277E+04
      2.132  0.3693E+02  0.1281E+04
      2.243  0.3086E+02  0.1284E+04
      2.353  0.2512E+02  0.1287E+04
      2.464  0.2004E+02  0.1289E+04
      2.575  0.1608E+02  0.1291E+04
      2.686  0.1128E+02  0.1292E+04
      2.796  0.8619E+01  0.1293E+04
      2.907  0.6329E+01  0.1294E+04
      3.018  0.4365E+01  0.1295E+04
      3.128  0.3440E+01  0.1295E+04
      3.239  0.2928E+01  0.1295E+04
      3.350  0.2295E+01  0.1296E+04
      3.460  0.2147E+01  0.1296E+04
      3.571  0.2270E+01  0.1296E+04
      3.682  0.2204E+01  0.1296E+04
      3.792  0.2524E+01  0.1297E+04
      3.903  0.2608E+01  0.1297E+04
      4.014  0.2900E+01  0.1297E+04
      4.124  0.4381E+01  0.1298E+04
      4.235  0.4250E+01  0.1298E+04
      4.346  0.5000E+01  0.1299E+04
      4.456  0.7315E+01  0.1299E+04
      4.567  0.7133E+01  0.1300E+04
      4.678  0.7663E+01  0.1301E+04
      4.788  0.7929E+01  0.1302E+04
      4.899  0.9852E+01  0.1303E+04
      5.010  0.1075E+02  0.1304E+04
      5.121  0.1297E+02  0.1306E+04
      5.231  0.1435E+02  0.1307E+04
      5.342  0.1576E+02  0.1309E+04
      5.453  0.1767E+02  0.1311E+04
      5.563  0.1887E+02  0.1313E+04
      5.674  0.2083E+02  0.1315E+04
      5.785  0.2219E+02  0.1318E+04
      5.895  0.2506E+02  0.1321E+04
      6.006  0.2672E+02  0.1323E+04
      6.117  0.2624E+02  0.1326E+04
      6.227  0.2883E+02  0.1330E+04
      6.338  0.3051E+02  0.1333E+04
      6.449  0.3280E+02  0.1337E+04
      6.559  0.3331E+02  0.1340E+04
      6.670  0.3480E+02  0.1344E+04
      6.781  0.3683E+02  0.1348E+04
      6.891  0.3842E+02  0.1352E+04
      7.002  0.3926E+02  0.1357E+04
      7.113  0.4058E+02  0.1361E+04
      7.223  0.4334E+02  0.1366E+04
      7.334  0.4448E+02  0.1371E+04
      7.445  0.4746E+02  0.1376E+04
      7.556  0.4925E+02  0.1381E+04
      7.666  0.5173E+02  0.1387E+04
      7.777  0.5291E+02  0.1393E+04
      7.888  0.5411E+02  0.1399E+04
      7.998  0.5761E+02  0.1405E+04
      8.109  0.5740E+02  0.1412E+04
      8.220  0.6082E+02  0.1418E+04
      8.330  0.6459E+02  0.1426E+04
      8.441  0.6559E+02  0.1433E+04
      8.552  0.6832E+02  0.1440E+04
      8.662  0.7046E+02  0.1448E+04
      8.773  0.7451E+02  0.1456E+04
      8.884  0.7613E+02  0.1465E+04
      8.994  0.7917E+02  0.1473E+04
      9.105  0.8087E+02  0.1482E+04
      9.216  0.8331E+02  0.1492E+04
      9.326  0.8479E+02  0.1501E+04
      9.437  0.8540E+02  0.1510E+04
      9.548  0.8728E+02  0.1520E+04
      9.659  0.8636E+02  0.1530E+04
      9.769  0.8538E+02  0.1539E+04
      9.880  0.8198E+02  0.1548E+04
      9.991  0.8015E+02  0.1557E+04
     10.101  0.6896E+02  0.1564E+04
     10.212  0.3130E+02  0.1568E+04
     10.323  0.4791E+00  0.1568E+04
     10.433  0.3301E-05  0.1568E+04
     10.544  0.2492E-14  0.1568E+04
     10.655  0.0000E+00  0.1568E+04
     10.765  0.0000E+00  0.1568E+04
     10.876  0.0000E+00  0.1568E+04
     10.987  0.0000E+00  0.1568E+04
     11.097  0.0000E+00  0.1568E+04
     11.208  0.0000E+00  0.1568E+04
     11.319  0.0000E+00  0.1568E+04
     11.429  0.0000E+00  0.1568E+04
     11.540  0.0000E+00  0.1568E+04
     11.651  0.0000E+00  0.1568E+04
     11.68552598    -21.50174980  301      3.19388912      1.00000000
    -21.502  0.0000E+00  0.0000E+00
    -21.391  0.0000E+00  0.0000E+00
    -21.281  0.0000E+00  0.0000E+00
    -21.170  0.0000E+00  0.0000E+00
    -21.059  0.0000E+00  0.0000E+00
    -20.949  0.0000E+00  0.0000E+00
    -20.838  0.0000E+00  0.0000E+00
    -20.727  0.0000E+00  0.0000E+00
    -20.617  0.0000E+00  0.0000E+00
    -20.506  0.0000E+00  0.0000E+00
    -20.396  0.0000E+00  0.0000E+00
    -20.285  0.1004E-17  0.1110E-18
    -20.174  0.2761E-08  0.3054E-09
    -20.064  0.4200E-03  0.4647E-04
    -19.953  0.1535E-01  0.1745E-02
    -19.842  0.2307E-02  0.2000E-02
    -19.732  0.2892E-02  0.2320E-02
    -19.621  0.1489E-01  0.3967E-02
    -19.511  0.4987E-03  0.4022E-02
    -19.400  0.2570E-01  0.6866E-02
    -19.289  0.1025E-01  0.8000E-02
    -19.179  0.2317E-02  0.8256E-02
    -19.068  0.1727E-01  0.1017E-01
    -18.957  0.2067E-01  0.1245E-01
    -18.847  0.2133E-01  0.1481E-01
    -18.736  0.4705E-01  0.2002E-01
    -18.626  0.1871E-01  0.2209E-01
    -18.515  0.2658E-01  0.2503E-01
    -18.404  0.4718E-01  0.3025E-01
    -18.294  0.5810E-01  0.3667E-01
    -18.183  0.4695E-01  0.4187E-01
    -18.072  0.4418E-01  0.4675E-01
    -17.962  0.7617E-01  0.5518E-01
    -17.851  0.5813E-01  0.6161E-01
    -17.741  0.6069E-01  0.6832E-01
    -17.630  0.7871E-01  0.7703E-01
    -17.519  0.6889E-01  0.8465E-01
    -17.409  0.7630E-01  0.9309E-01
    -17.298  0.7720E-01  0.1016E+00
    -17.187  0.8702E-01  0.1113E+00
    -17.077  0.5865E-01  0.1177E+00
    -16.966  0.8006E-01  0.1266E+00
    -16.856  0.6823E-01  0.1342E+00
    -16.745  0.6412E-01  0.1412E+00
    -16.634  0.7383E-01  0.1494E+00
    -16.524  0.6931E-01  0.1571E+00
    -16.413  0.1005E+00  0.1682E+00
    -16.302  0.1064E+00  0.1800E+00
    -16.192  0.8319E-01  0.1892E+00
    -16.081  0.4831E-01  0.1945E+00
    -15.971  0.9907E-01  0.2055E+00
    -15.860  0.8124E-01  0.2145E+00
    -15.749  0.1160E+00  0.2273E+00
    -15.639  0.7678E-01  0.2358E+00
    -15.528  0.6142E-01  0.2426E+00
    -15.417  0.5515E-01  0.2487E+00
    -15.307  0.5166E-01  0.2544E+00
    -15.196  0.8083E-01  0.2633E+00
    -15.086  0.9791E-01  0.2742E+00
    -14.975  0.5657E-01  0.2804E+00
    -14.864  0.6706E-01  0.2878E+00
    -14.754  0.9837E-01  0.2987E+00
    -14.643  0.4190E-01  0.3034E+00
    -14.532  0.3322E-01  0.3070E+00
    -14.422  0.2469E-01  0.3098E+00
    -14.311  0.2303E-01  0.3123E+00
    -14.201  0.3034E-01  0.3157E+00
    -14.090  0.5990E-02  0.3163E+00
    -13.979  0.1484E-01  0.3180E+00
    -13.869  0.2306E-02  0.3182E+00
    -13.758  0.1555E-01  0.3199E+00
    -13.647  0.5060E-03  0.3200E+00
    -13.537  0.4220E-08  0.3200E+00
    -13.426  0.3395E-04  0.3200E+00
    -13.316  0.1066E-01  0.3212E+00
    -13.205  0.7381E-02  0.3220E+00
    -13.094  0.7049E-05  0.3220E+00
    -12.984  0.7821E-12  0.3220E+00
    -12.873  0.1350E-08  0.3220E+00
    -12.762  0.3040E-03  0.3220E+00
    -12.652  0.1493E-01  0.3237E+00
    -12.541  0.2848E-02  0.3240E+00
    -12.431  0.3231E-06  0.3240E+00
    -12.320  0.3438E-14  0.3240E+00
    -12.209  0.0000E+00  0.3240E+00
    -12.099  0.0000E+00  0.3240E+00
    -11.988  0.0000E+00  0.3240E+00
    -11.877  0.0000E+00  0.3240E+00
    -11.767  0.0000E+00  0.3240E+00
    -11.656  0.0000E+00  0.3240E+00
    -11.546  0.0000E+00  0.3240E+00
    -11.435  0.0000E+00  0.3240E+00
    -11.324  0.0000E+00  0.3240E+00
    -11.214  0.0000E+00  0.3240E+00
    -11.103  0.0000E+00  0.3240E+00
    -10.992  0.0000E+00  0.3240E+00
    -10.882  0.0000E+00  0.3240E+00
    -10.771  0.0000E+00  0.3240E+00
    -10.661  0.0000E+00  0.3240E+00
    -10.550  0.0000E+00  0.3240E+00
    -10.439  0.0000E+00  0.3240E+00
    -10.329  0.0000E+00  0.3240E+00
    -10.218  0.0000E+00  0.3240E+00
    -10.107  0.0000E+00  0.3240E+00
     -9.997  0.0000E+00  0.3240E+00
     -9.886  0.0000E+00  0.3240E+00
     -9.776  0.0000E+00  0.3240E+00
     -9.665  0.0000E+00  0.3240E+00
     -9.554  0.0000E+00  0.3240E+00
     -9.444  0.0000E+00  0.3240E+00
     -9.333  0.0000E+00  0.3240E+00
     -9.222  0.0000E+00  0.3240E+00
     -9.112  0.1505E-16  0.3240E+00
     -9.001  0.1193E-07  0.3240E+00
     -8.891  0.7924E-03  0.3241E+00
     -8.780  0.1588E-01  0.3258E+00
     -8.669  0.1404E-02  0.3260E+00
     -8.559  0.2107E-06  0.3260E+00
     -8.448  0.3282E-02  0.3264E+00
     -8.337  0.3622E-01  0.3304E+00
     -8.227  0.1466E-01  0.3320E+00
     -8.116  0.1129E-01  0.3332E+00
     -8.006  0.2448E-01  0.3359E+00
     -7.895  0.2760E-01  0.3390E+00
     -7.784  0.4469E-01  0.3439E+00
     -7.674  0.4598E-01  0.3490E+00
     -7.563  0.2664E-01  0.3520E+00
     -7.452  0.1085E-01  0.3532E+00
     -7.342  0.1871E-01  0.3552E+00
     -7.231  0.4893E-01  0.3607E+00
     -7.121  0.2534E-01  0.3635E+00
     -7.010  0.3819E-01  0.3677E+00
     -6.899  0.4052E-01  0.3722E+00
     -6.789  0.3377E-01  0.3759E+00
     -6.678  0.4683E-01  0.3811E+00
     -6.567  0.4134E-01  0.3857E+00
     -6.457  0.5459E-01  0.3917E+00
     -6.346  0.4047E-01  0.3962E+00
     -6.236  0.3891E-01  0.4005E+00
     -6.125  0.4016E-01  0.4049E+00
     -6.014  0.5020E-01  0.4105E+00
     -5.904  0.5300E-01  0.4163E+00
     -5.793  0.4072E-01  0.4208E+00
     -5.682  0.4425E-01  0.4257E+00
     -5.572  0.4093E-01  0.4303E+00
     -5.461  0.4985E-01  0.4358E+00
     -5.351  0.5189E-01  0.4415E+00
     -5.240  0.4096E-01  0.4461E+00
     -5.129  0.5614E-01  0.4523E+00
     -5.019  0.7285E-01  0.4603E+00
     -4.908  0.5903E-01  0.4669E+00
     -4.797  0.6191E-01  0.4737E+00
     -4.687  0.7826E-01  0.4824E+00
     -4.576  0.6299E-01  0.4893E+00
     -4.466  0.7119E-01  0.4972E+00
     -4.355  0.7789E-01  0.5058E+00
     -4.244  0.9406E-01  0.5162E+00
     -4.134  0.7184E-01  0.5242E+00
     -4.023  0.6931E-01  0.5318E+00
     -3.912  0.9001E-01  0.5418E+00
     -3.802  0.9079E-01  0.5518E+00
     -3.691  0.7900E-01  0.5606E+00
     -3.581  0.9436E-01  0.5710E+00
     -3.470  0.8569E-01  0.5805E+00
     -3.359  0.1031E+00  0.5919E+00
     -3.249  0.9373E-01  0.6023E+00
     -3.138  0.8375E-01  0.6115E+00
     -3.027  0.9637E-01  0.6222E+00
     -2.917  0.1215E+00  0.6356E+00
     -2.806  0.9763E-01  0.6464E+00
     -2.696  0.7821E-01  0.6551E+00
     -2.585  0.9546E-01  0.6657E+00
     -2.474  0.1355E+00  0.6806E+00
     -2.364  0.1258E+00  0.6946E+00
     -2.253  0.1126E+00  0.7070E+00
     -2.143  0.1191E+00  0.7202E+00
     -2.032  0.1370E+00  0.7354E+00
     -1.921  0.1363E+00  0.7504E+00
     -1.811  0.1335E+00  0.7652E+00
     -1.700  0.1256E+00  0.7791E+00
     -1.589  0.1296E+00  0.7934E+00
     -1.479  0.1458E+00  0.8096E+00
     -1.368  0.1301E+00  0.8239E+00
     -1.258  0.1478E+00  0.8403E+00
     -1.147  0.1500E+00  0.8569E+00
     -1.036  0.1470E+00  0.8732E+00
     -0.926  0.1492E+00  0.8897E+00
     -0.815  0.1540E+00  0.9067E+00
     -0.704  0.1531E+00  0.9236E+00
     -0.594  0.1729E+00  0.9427E+00
     -0.483  0.1594E+00  0.9604E+00
     -0.373  0.1550E+00  0.9775E+00
     -0.262  0.1597E+00  0.9952E+00
     -0.151  0.1669E+00  0.1014E+01
     -0.041  0.1550E+00  0.1031E+01
      0.070  0.1586E+00  0.1048E+01
      0.181  0.1631E+00  0.1066E+01
      0.291  0.1540E+00  0.1083E+01
      0.402  0.1421E+00  0.1099E+01
      0.512  0.1098E+00  0.1111E+01
      0.623  0.1399E+00  0.1127E+01
      0.734  0.1374E+00  0.1142E+01
      0.844  0.1288E+00  0.1156E+01
      0.955  0.1275E+00  0.1170E+01
      1.066  0.1144E+00  0.1183E+01
      1.176  0.1414E+00  0.1199E+01
      1.287  0.1203E+00  0.1212E+01
      1.397  0.1044E+00  0.1223E+01
      1.508  0.1259E+00  0.1237E+01
      1.619  0.1007E+00  0.1249E+01
      1.729  0.9064E-01  0.1259E+01
      1.840  0.8258E-01  0.1268E+01
      1.951  0.5181E-01  0.1273E+01
      2.061  0.4747E-01  0.1279E+01
      2.172  0.2726E-01  0.1282E+01
      2.282  0.3758E-01  0.1286E+01
      2.393  0.2414E-01  0.1289E+01
      2.504  0.1309E-01  0.1290E+01
      2.614  0.3713E-04  0.1290E+01
      2.725  0.2386E-09  0.1290E+01
      2.836  0.1297E-03  0.1290E+01
      2.946  0.1347E-01  0.1292E+01
      3.057  0.9314E-02  0.1293E+01
      3.167  0.3023E-01  0.1296E+01
      3.278  0.1046E-01  0.1297E+01
      3.389  0.8703E-02  0.1298E+01
      3.499  0.1360E-04  0.1298E+01
      3.610  0.1224E-04  0.1298E+01
      3.721  0.8485E-02  0.1299E+01
      3.831  0.9562E-02  0.1300E+01
      3.942  0.2044E-04  0.1300E+01
      4.052  0.5701E-11  0.1300E+01
      4.163  0.0000E+00  0.1300E+01
      4.274  0.9744E-10  0.1300E+01
      4.384  0.8700E-04  0.1300E+01
      4.495  0.1267E-01  0.1301E+01
      4.606  0.5587E-02  0.1302E+01
      4.716  0.1556E-01  0.1304E+01
      4.827  0.2221E-01  0.1306E+01
      4.937  0.1595E-01  0.1308E+01
      5.048  0.5303E-02  0.1309E+01
      5.159  0.1838E-01  0.1311E+01
      5.269  0.1555E-01  0.1312E+01
      5.380  0.1579E-01  0.1314E+01
      5.491  0.1620E-01  0.1316E+01
      5.601  0.4440E-02  0.1316E+01
      5.712  0.2528E-01  0.1319E+01
      5.822  0.3177E-01  0.1323E+01
      5.933  0.1289E-01  0.1324E+01
      6.044  0.1682E-01  0.1326E+01
      6.154  0.1833E-01  0.1328E+01
      6.265  0.1940E-01  0.1330E+01
      6.376  0.3855E-01  0.1334E+01
      6.486  0.2724E-01  0.1337E+01
      6.597  0.2815E-01  0.1341E+01
      6.707  0.3624E-01  0.1345E+01
      6.818  0.3706E-01  0.1349E+01
      6.929  0.3959E-01  0.1353E+01
      7.039  0.2415E-01  0.1356E+01
      7.150  0.3066E-01  0.1359E+01
      7.261  0.4965E-01  0.1365E+01
      7.371  0.4842E-01  0.1370E+01
      7.482  0.3996E-01  0.1374E+01
      7.592  0.5350E-01  0.1380E+01
      7.703  0.5820E-01  0.1387E+01
      7.814  0.6504E-01  0.1394E+01
      7.924  0.6107E-01  0.1401E+01
      8.035  0.5751E-01  0.1407E+01
      8.146  0.6718E-01  0.1414E+01
      8.256  0.5047E-01  0.1420E+01
      8.367  0.6073E-01  0.1427E+01
      8.477  0.7312E-01  0.1435E+01
      8.588  0.6518E-01  0.1442E+01
      8.699  0.6992E-01  0.1450E+01
      8.809  0.7931E-01  0.1459E+01
      8.920  0.8587E-01  0.1468E+01
      9.031  0.8086E-01  0.1477E+01
      9.141  0.6378E-01  0.1484E+01
      9.252  0.7212E-01  0.1492E+01
      9.362  0.9057E-01  0.1502E+01
      9.473  0.7840E-01  0.1511E+01
      9.584  0.7835E-01  0.1519E+01
      9.694  0.8353E-01  0.1529E+01
      9.805  0.7312E-01  0.1537E+01
      9.916  0.9187E-01  0.1547E+01
     10.026  0.7790E-01  0.1555E+01
     10.137  0.7429E-01  0.1564E+01
     10.247  0.3835E-01  0.1568E+01
     10.358  0.4842E-03  0.1568E+01
     10.469  0.2803E-08  0.1568E+01
     10.579  0.0000E+00  0.1568E+01
     10.690  0.0000E+00  0.1568E+01
     10.801  0.0000E+00  0.1568E+01
     10.911  0.0000E+00  0.1568E+01
     11.022  0.0000E+00  0.1568E+01
     11.132  0.0000E+00  0.1568E+01
     11.243  0.0000E+00  0.1568E+01
     11.354  0.0000E+00  0.1568E+01
     11.464  0.0000E+00  0.1568E+01
     11.575  0.0000E+00  0.1568E+01
     11.686  0.0000E+00  0.1568E+01
