  243  243 1000    1
  0.1311304E+02  0.1499160E-08  0.1499160E-08  0.1637130E-08  0.5000000E-15
   4000.00000000000     
  CAR 
 (Si O2)81  (P1) ~ 3x3x3Supersel (VASP)  
   1296      1    784
 
  0.0000000E+00  0.0000000E+00  0.0000000E+00  0.1000000E+01
    1      -19.993237
    2      -19.696599
    3      -19.424220
    4      -19.416289
    5      -19.138469
    6      -19.023946
    7      -18.934259
    8      -18.820104
    9      -18.810602
   10      -18.782399
   11      -18.696352
   12      -18.571954
   13      -18.515282
   14      -18.459529
   15      -18.419679
   16      -18.388429
   17      -18.371468
   18      -18.320677
   19      -18.299524
   20      -18.205685
   21      -18.195017
   22      -18.187128
   23      -18.106766
   24      -18.045903
   25      -18.040331
   26      -18.026174
   27      -18.009226
   28      -17.970379
   29      -17.915493
   30      -17.900531
   31      -17.865531
   32      -17.821308
   33      -17.796399
   34      -17.755853
   35      -17.725134
   36      -17.706083
   37      -17.683220
   38      -17.662284
   39      -17.619976
   40      -17.616293
   41      -17.564355
   42      -17.546279
   43      -17.513108
   44      -17.475732
   45      -17.471170
   46      -17.451856
   47      -17.403178
   48      -17.379152
   49      -17.355837
   50      -17.332959
   51      -17.307504
   52      -17.270047
   53      -17.262564
   54      -17.235843
   55      -17.227639
   56      -17.185557
   57      -17.168616
   58      -17.140013
   59      -17.087930
   60      -17.048634
   61      -17.020598
   62      -17.004286
   63      -16.977919
   64      -16.959510
   65      -16.956408
   66      -16.910363
   67      -16.883140
   68      -16.838895
   69      -16.790281
   70      -16.765532
   71      -16.743853
   72      -16.723102
   73      -16.711166
   74      -16.694324
   75      -16.646286
   76      -16.590650
   77      -16.564960
   78      -16.542208
   79      -16.528237
   80      -16.504773
   81      -16.475772
   82      -16.463738
   83      -16.431930
   84      -16.426780
   85      -16.416574
   86      -16.374978
   87      -16.368686
   88      -16.360694
   89      -16.322665
   90      -16.304050
   91      -16.290341
   92      -16.283198
   93      -16.267074
   94      -16.234341
   95      -16.190912
   96      -16.164614
   97      -16.109451
   98      -16.057963
   99      -16.040334
  100      -16.022459
  101      -16.016802
  102      -15.999591
  103      -15.980548
  104      -15.959913
  105      -15.929418
  106      -15.896667
  107      -15.866492
  108      -15.853313
  109      -15.837114
  110      -15.810078
  111      -15.798122
  112      -15.786190
  113      -15.763026
  114      -15.762428
  115      -15.737989
  116      -15.719149
  117      -15.688347
  118      -15.672122
  119      -15.595009
  120      -15.574072
  121      -15.558792
  122      -15.521829
  123      -15.494202
  124      -15.430896
  125      -15.419272
  126      -15.385118
  127      -15.318133
  128      -15.299319
  129      -15.267757
  130      -15.238533
  131      -15.209207
  132      -15.198828
  133      -15.186141
  134      -15.166260
  135      -15.126630
  136      -15.114314
  137      -15.106313
  138      -15.093516
  139      -15.040574
  140      -15.005559
  141      -14.964436
  142      -14.906249
  143      -14.902423
  144      -14.881840
  145      -14.849552
  146      -14.814067
  147      -14.796454
  148      -14.793398
  149      -14.789079
  150      -14.774738
  151      -14.704130
  152      -14.657847
  153      -14.586552
  154      -14.537194
  155      -14.462015
  156      -14.335415
  157      -14.300788
  158      -14.234871
  159      -14.055221
  160      -13.825624
  161      -13.323720
  162      -12.687324
  163       -8.830203
  164       -8.405054
  165       -8.395826
  166       -8.314944
  167       -8.123772
  168       -8.052274
  169       -7.952526
  170       -7.894899
  171       -7.837310
  172       -7.788501
  173       -7.776096
  174       -7.735918
  175       -7.658775
  176       -7.646564
  177       -7.460407
  178       -7.342071
  179       -7.297520
  180       -7.266626
  181       -7.232604
  182       -7.139988
  183       -7.049784
  184       -7.021306
  185       -6.992780
  186       -6.946369
  187       -6.866339
  188       -6.813028
  189       -6.754621
  190       -6.728740
  191       -6.686040
  192       -6.618418
  193       -6.571077
  194       -6.549023
  195       -6.513348
  196       -6.467397
  197       -6.429278
  198       -6.406206
  199       -6.304497
  200       -6.276965
  201       -6.211097
  202       -6.197999
  203       -6.119469
  204       -6.063093
  205       -6.044343
  206       -6.011600
  207       -5.954482
  208       -5.930677
  209       -5.899571
  210       -5.828916
  211       -5.791453
  212       -5.747464
  213       -5.675833
  214       -5.668443
  215       -5.643278
  216       -5.534592
  217       -5.490968
  218       -5.476137
  219       -5.455941
  220       -5.370668
  221       -5.353433
  222       -5.349802
  223       -5.281940
  224       -5.198917
  225       -5.166724
  226       -5.147807
  227       -5.111686
  228       -5.104951
  229       -5.069271
  230       -5.037744
  231       -5.009120
  232       -4.981753
  233       -4.924363
  234       -4.913214
  235       -4.877383
  236       -4.835903
  237       -4.791961
  238       -4.784564
  239       -4.761788
  240       -4.737231
  241       -4.709458
  242       -4.683164
  243       -4.629762
  244       -4.619079
  245       -4.574319
  246       -4.549721
  247       -4.534919
  248       -4.500445
  249       -4.462909
  250       -4.442612
  251       -4.411366
  252       -4.375559
  253       -4.368499
  254       -4.335399
  255       -4.333722
  256       -4.282321
  257       -4.275572
  258       -4.269299
  259       -4.244538
  260       -4.209374
  261       -4.175722
  262       -4.151751
  263       -4.111806
  264       -4.108319
  265       -4.061249
  266       -4.031250
  267       -3.996024
  268       -3.992891
  269       -3.964655
  270       -3.944866
  271       -3.921704
  272       -3.894609
  273       -3.880603
  274       -3.855095
  275       -3.841229
  276       -3.805646
  277       -3.796151
  278       -3.761535
  279       -3.734339
  280       -3.701619
  281       -3.686888
  282       -3.671029
  283       -3.631391
  284       -3.616594
  285       -3.612102
  286       -3.578618
  287       -3.565065
  288       -3.527698
  289       -3.524256
  290       -3.475651
  291       -3.464573
  292       -3.442172
  293       -3.426174
  294       -3.399523
  295       -3.391867
  296       -3.374850
  297       -3.357604
  298       -3.309673
  299       -3.303595
  300       -3.278062
  301       -3.265403
  302       -3.241898
  303       -3.218527
  304       -3.208395
  305       -3.172292
  306       -3.151010
  307       -3.107666
  308       -3.091010
  309       -3.070151
  310       -3.063291
  311       -3.031363
  312       -3.009105
  313       -3.002793
  314       -2.997042
  315       -2.982931
  316       -2.959842
  317       -2.932093
  318       -2.920475
  319       -2.910303
  320       -2.887438
  321       -2.876107
  322       -2.847971
  323       -2.811247
  324       -2.805221
  325       -2.780622
  326       -2.758752
  327       -2.722047
  328       -2.690886
  329       -2.667806
  330       -2.657105
  331       -2.621450
  332       -2.596075
  333       -2.582150
  334       -2.570995
  335       -2.560093
  336       -2.548915
  337       -2.543257
  338       -2.526098
  339       -2.500433
  340       -2.489987
  341       -2.474135
  342       -2.443986
  343       -2.440265
  344       -2.423029
  345       -2.417410
  346       -2.399429
  347       -2.381129
  348       -2.362164
  349       -2.343611
  350       -2.313547
  351       -2.290708
  352       -2.289141
  353       -2.274548
  354       -2.259066
  355       -2.237986
  356       -2.217252
  357       -2.188914
  358       -2.187544
  359       -2.161737
  360       -2.152412
  361       -2.132296
  362       -2.121494
  363       -2.106600
  364       -2.102646
  365       -2.079830
  366       -2.061383
  367       -2.038282
  368       -2.030654
  369       -2.019546
  370       -2.016444
  371       -2.000143
  372       -1.976149
  373       -1.953760
  374       -1.939947
  375       -1.934607
  376       -1.919096
  377       -1.901284
  378       -1.891536
  379       -1.874927
  380       -1.860444
  381       -1.850848
  382       -1.823673
  383       -1.816469
  384       -1.793315
  385       -1.781853
  386       -1.762140
  387       -1.738917
  388       -1.730845
  389       -1.723736
  390       -1.710129
  391       -1.672876
  392       -1.666597
  393       -1.651550
  394       -1.649321
  395       -1.612254
  396       -1.601647
  397       -1.587842
  398       -1.578586
  399       -1.566899
  400       -1.547609
  401       -1.547268
  402       -1.535272
  403       -1.514264
  404       -1.493299
  405       -1.485874
  406       -1.474203
  407       -1.452259
  408       -1.423893
  409       -1.420964
  410       -1.404919
  411       -1.390985
  412       -1.368581
  413       -1.363988
  414       -1.350409
  415       -1.336812
  416       -1.304732
  417       -1.290833
  418       -1.278078
  419       -1.272704
  420       -1.264290
  421       -1.259282
  422       -1.251580
  423       -1.234145
  424       -1.218687
  425       -1.203832
  426       -1.197750
  427       -1.178990
  428       -1.161305
  429       -1.152448
  430       -1.124338
  431       -1.105327
  432       -1.098056
  433       -1.089517
  434       -1.083450
  435       -1.060676
  436       -1.054243
  437       -1.034339
  438       -1.024214
  439       -1.011565
  440       -0.995637
  441       -0.989607
  442       -0.969488
  443       -0.959650
  444       -0.942145
  445       -0.928422
  446       -0.909845
  447       -0.904550
  448       -0.893554
  449       -0.877558
  450       -0.866678
  451       -0.852845
  452       -0.851862
  453       -0.831322
  454       -0.811896
  455       -0.793549
  456       -0.787764
  457       -0.763768
  458       -0.751307
  459       -0.737890
  460       -0.725901
  461       -0.716231
  462       -0.704334
  463       -0.692507
  464       -0.688295
  465       -0.682994
  466       -0.673373
  467       -0.653335
  468       -0.637675
  469       -0.623828
  470       -0.613780
  471       -0.601544
  472       -0.600557
  473       -0.576896
  474       -0.569788
  475       -0.557181
  476       -0.547634
  477       -0.530681
  478       -0.516571
  479       -0.506170
  480       -0.488045
  481       -0.476779
  482       -0.468581
  483       -0.454073
  484       -0.441385
  485       -0.431404
  486       -0.421704
  487       -0.396529
  488       -0.381125
  489       -0.366920
  490       -0.365236
  491       -0.356324
  492       -0.344158
  493       -0.325260
  494       -0.318772
  495       -0.301720
  496       -0.292298
  497       -0.272520
  498       -0.262433
  499       -0.242751
  500       -0.234935
  501       -0.227506
  502       -0.214315
  503       -0.207594
  504       -0.204917
  505       -0.177096
  506       -0.166674
  507       -0.158133
  508       -0.145020
  509       -0.130901
  510       -0.114987
  511       -0.098049
  512       -0.089918
  513       -0.079687
  514       -0.058934
  515       -0.052994
  516       -0.041477
  517       -0.035590
  518       -0.013009
  519        0.002446
  520        0.020493
  521        0.033082
  522        0.040144
  523        0.053578
  524        0.060736
  525        0.069273
  526        0.082629
  527        0.093684
  528        0.109798
  529        0.126480
  530        0.135082
  531        0.142946
  532        0.166471
  533        0.177163
  534        0.186872
  535        0.196105
  536        0.202203
  537        0.218509
  538        0.223626
  539        0.240446
  540        0.265024
  541        0.275057
  542        0.289458
  543        0.305362
  544        0.317600
  545        0.326632
  546        0.341133
  547        0.353968
  548        0.360115
  549        0.372271
  550        0.397070
  551        0.426278
  552        0.438900
  553        0.451091
  554        0.475480
  555        0.486241
  556        0.515906
  557        0.521559
  558        0.552270
  559        0.573460
  560        0.582348
  561        0.583453
  562        0.600176
  563        0.606789
  564        0.619209
  565        0.626083
  566        0.655329
  567        0.680338
  568        0.686112
  569        0.689480
  570        0.705671
  571        0.718830
  572        0.736440
  573        0.764128
  574        0.790647
  575        0.791896
  576        0.801056
  577        0.814749
  578        0.829804
  579        0.856310
  580        0.867799
  581        0.879212
  582        0.896660
  583        0.910049
  584        0.918122
  585        0.936626
  586        0.954130
  587        0.997593
  588        0.999500
  589        1.013225
  590        1.038436
  591        1.048389
  592        1.073335
  593        1.083593
  594        1.101941
  595        1.105028
  596        1.107987
  597        1.132939
  598        1.154415
  599        1.166011
  600        1.180732
  601        1.193643
  602        1.201997
  603        1.220482
  604        1.235672
  605        1.270535
  606        1.277273
  607        1.288479
  608        1.321168
  609        1.332185
  610        1.345181
  611        1.381813
  612        1.394721
  613        1.410494
  614        1.429973
  615        1.453929
  616        1.458003
  617        1.472146
  618        1.487904
  619        1.496210
  620        1.524095
  621        1.537929
  622        1.552087
  623        1.570569
  624        1.604583
  625        1.629134
  626        1.638596
  627        1.672838
  628        1.695952
  629        1.707784
  630        1.726137
  631        1.770367
  632        1.773925
  633        1.795310
  634        1.820476
  635        1.865614
  636        1.890836
  637        1.945345
  638        1.981784
  639        2.016281
  640        2.064458
  641        2.157168
  642        2.208657
  643        2.229527
  644        2.352339
  645        2.402200
  646        2.922149
  647        3.086699
  648        3.109532
  649        3.276497
  650        3.723242
  651        4.475862
  652        4.682747
  653        4.775341
  654        4.859657
  655        5.068740
  656        5.177065
  657        5.304318
  658        5.439391
  659        5.634744
  660        5.719986
  661        5.744753
  662        5.836699
  663        5.993517
  664        6.102258
  665        6.210769
  666        6.308264
  667        6.347340
  668        6.382005
  669        6.472325
  670        6.545812
  671        6.614023
  672        6.673695
  673        6.713924
  674        6.799127
  675        6.822237
  676        6.854382
  677        6.928177
  678        7.009314
  679        7.105396
  680        7.142335
  681        7.213970
  682        7.229389
  683        7.262392
  684        7.319769
  685        7.325818
  686        7.412359
  687        7.461816
  688        7.487476
  689        7.546378
  690        7.574673
  691        7.607156
  692        7.629168
  693        7.653962
  694        7.736510
  695        7.740832
  696        7.743098
  697        7.800531
  698        7.836823
  699        7.862362
  700        7.895334
  701        7.926172
  702        7.974307
  703        8.003477
  704        8.048832
  705        8.059915
  706        8.077392
  707        8.102584
  708        8.162153
  709        8.209634
  710        8.227508
  711        8.276261
  712        8.329836
  713        8.342178
  714        8.360084
  715        8.404478
  716        8.430035
  717        8.460491
  718        8.470182
  719        8.503456
  720        8.555090
  721        8.560042
  722        8.612742
  723        8.628312
  724        8.649840
  725        8.683749
  726        8.719443
  727        8.764973
  728        8.771552
  729        8.793872
  730        8.804420
  731        8.831267
  732        8.878963
  733        8.898364
  734        8.918782
  735        8.921103
  736        8.942950
  737        8.955521
  738        9.010485
  739        9.030428
  740        9.064008
  741        9.072248
  742        9.113070
  743        9.176969
  744        9.193591
  745        9.202015
  746        9.228848
  747        9.269567
  748        9.310929
  749        9.316504
  750        9.327496
  751        9.336614
  752        9.368994
  753        9.409027
  754        9.418173
  755        9.446552
  756        9.482881
  757        9.501886
  758        9.524483
  759        9.560826
  760        9.581398
  761        9.602609
  762        9.628626
  763        9.634972
  764        9.668454
  765        9.687320
  766        9.763893
  767        9.773253
  768        9.779519
  769        9.803549
  770        9.831248
  771        9.846521
  772        9.872958
  773        9.891850
  774        9.925798
  775        9.933759
  776        9.959249
  777        9.979277
  778       10.018675
  779       10.057144
  780       10.076416
  781       10.100710
  782       10.128899
  783       10.150763
  784       10.177013
