       N       E                     dE             d eps       ncg     rms          rms(c)
DAV:   1     0.819642636737E+04    0.81964E+04   -0.59838E+05  1576   0.124E+03
DAV:   2    -0.147446982777E+04   -0.96709E+04   -0.94773E+04  1840   0.335E+02
DAV:   3    -0.217363281585E+04   -0.69916E+03   -0.69618E+03  1832   0.981E+01
DAV:   4    -0.218596287922E+04   -0.12330E+02   -0.12303E+02  1888   0.136E+01
DAV:   5    -0.218621756899E+04   -0.25469E+00   -0.25436E+00  1824   0.182E+00    0.140E+02
RMM:   6    -0.191750373117E+04    0.26871E+03   -0.11077E+03  1568   0.338E+01    0.571E+01
RMM:   7    -0.191561589117E+04    0.18878E+01   -0.58187E+01  1569   0.678E+00    0.270E+01
RMM:   8    -0.191537088121E+04    0.24501E+00   -0.64780E+00  1568   0.370E+00    0.263E+00
RMM:   9    -0.191545390162E+04   -0.83020E-01   -0.12111E+00  1568   0.112E+00    0.169E+00
RMM:  10    -0.191549949753E+04   -0.45596E-01   -0.79733E-02  1568   0.315E-01    0.774E-01
RMM:  11    -0.191548786152E+04    0.11636E-01   -0.68610E-02  1568   0.280E-01    0.998E-02
RMM:  12    -0.191548825623E+04   -0.39471E-03   -0.97548E-04  1451   0.363E-02    0.938E-02
RMM:  13    -0.191548815104E+04    0.10519E-03   -0.49941E-04  1367   0.246E-02    0.149E-02
RMM:  14    -0.191548816598E+04   -0.14934E-04   -0.20859E-05   920   0.568E-03
    1 T=  4001. E= -.17903350E+04 F= -.19154882E+04 E0= -.19154882E+04  EK= 0.12515E+03 SP= 0.00E+00 SK= 0.20E-07
       N       E                     dE             d eps       ncg     rms          rms(c)
DAV:   1    -0.191476099282E+04    0.72716E+00   -0.15658E+02  1712   0.170E+01    0.469E+00
RMM:   2    -0.191505907972E+04   -0.29809E+00   -0.38921E+00  1568   0.241E+00    0.146E+00
RMM:   3    -0.191499343098E+04    0.65649E-01   -0.11713E-01  1568   0.387E-01    0.806E-01
RMM:   4    -0.191497380649E+04    0.19624E-01   -0.96246E-02  1568   0.292E-01    0.208E-01
RMM:   5    -0.191497269134E+04    0.11152E-02   -0.51187E-03  1568   0.675E-02    0.101E-01
RMM:   6    -0.191497238795E+04    0.30339E-03   -0.96677E-04  1402   0.287E-02    0.449E-02
RMM:   7    -0.191497223476E+04    0.15319E-03   -0.40543E-04  1155   0.180E-02    0.216E-02
RMM:   8    -0.191497219913E+04    0.35631E-04   -0.23562E-04   983   0.134E-02
    2 T=  3985. E= -.17903293E+04 F= -.19149722E+04 E0= -.19149722E+04  EK= 0.12464E+03 SP= 0.71E-03 SK= 0.44E-05
       N       E                     dE             d eps       ncg     rms          rms(c)
DAV:   1    -0.191328932184E+04    0.16829E+01   -0.40931E-01  1840   0.359E+00    0.587E-01
RMM:   2    -0.191333730178E+04   -0.47980E-01   -0.51585E-01  1568   0.883E-01    0.398E-01
RMM:   3    -0.191333411481E+04    0.31870E-02   -0.92424E-03  1646   0.866E-02    0.268E-01
RMM:   4    -0.191333330561E+04    0.80920E-03   -0.61221E-03  1568   0.775E-02    0.868E-02
RMM:   5    -0.191333330786E+04   -0.22563E-05   -0.80725E-05   921   0.101E-02
    3 T=  3933. E= -.17903140E+04 F= -.19133333E+04 E0= -.19133333E+04  EK= 0.12303E+03 SP= -.10E-01 SK= 0.22E-03
       N       E                     dE             d eps       ncg     rms          rms(c)
DAV:   1    -0.191060439104E+04    0.27289E+01   -0.78361E-01  2328   0.344E+00    0.535E-01
RMM:   2    -0.191064929379E+04   -0.44903E-01   -0.48660E-01  1568   0.837E-01    0.306E-01
RMM:   3    -0.191064764369E+04    0.16501E-02   -0.11445E-02  1648   0.993E-02    0.205E-01
RMM:   4    -0.191064726594E+04    0.37775E-03   -0.27706E-03  1561   0.504E-02    0.870E-02
RMM:   5    -0.191064726592E+04    0.20576E-07   -0.63112E-05   920   0.804E-03
    4 T=  3850. E= -.17902909E+04 F= -.19106473E+04 E0= -.19106473E+04  EK= 0.12043E+03 SP= -.73E-01 SK= 0.24E-02
       N       E                     dE             d eps       ncg     rms          rms(c)
DAV:   1    -0.190700939785E+04    0.36379E+01   -0.28755E-01  2792   0.328E+00    0.293E-01
RMM:   2    -0.190703463378E+04   -0.25236E-01   -0.25958E-01  1568   0.620E-01    0.323E-01
RMM:   3    -0.190703328887E+04    0.13449E-02   -0.73903E-03  1715   0.735E-02    0.234E-01
RMM:   4    -0.190703247479E+04    0.81407E-03   -0.43977E-03  1568   0.658E-02    0.733E-02
RMM:   5    -0.190703247325E+04    0.15402E-05   -0.10349E-04   920   0.108E-02
    5 T=  3741. E= -.17902619E+04 F= -.19070325E+04 E0= -.19070325E+04  EK= 0.11701E+03 SP= -.25E+00 SK= 0.13E-01
       N       E                     dE             d eps       ncg     rms          rms(c)
DAV:   1    -0.190262666849E+04    0.44058E+01   -0.21678E-01  2800   0.315E+00    0.323E-01
RMM:   2    -0.190264439498E+04   -0.17726E-01   -0.19690E-01  1568   0.526E-01    0.142E-01
RMM:   3    -0.190264430262E+04    0.92362E-04   -0.54520E-03  1714   0.623E-02    0.961E-02
RMM:   4    -0.190264419267E+04    0.10995E-03   -0.55056E-04  1292   0.228E-02    0.463E-02
RMM:   5    -0.190264418627E+04    0.64005E-05   -0.49751E-05   920   0.760E-03
    6 T=  3612. E= -.17902286E+04 F= -.19026442E+04 E0= -.19026442E+04  EK= 0.11300E+03 SP= -.63E+00 SK= 0.45E-01
       N       E                     dE             d eps       ncg     rms          rms(c)
DAV:   1    -0.189765471271E+04    0.49895E+01   -0.14164E-01  2776   0.304E+00    0.259E-01
RMM:   2    -0.189766889206E+04   -0.14179E-01   -0.15154E-01  1568   0.455E-01    0.133E-01
RMM:   3    -0.189766879869E+04    0.93374E-04   -0.45728E-03  1683   0.568E-02    0.839E-02
RMM:   4    -0.189766869850E+04    0.10019E-03   -0.56412E-04  1267   0.226E-02    0.350E-02
RMM:   5    -0.189766869656E+04    0.19388E-05   -0.35805E-05   920   0.636E-03
    7 T=  3474. E= -.17901926E+04 F= -.18976687E+04 E0= -.18976687E+04  EK= 0.10866E+03 SP= -.13E+01 SK= 0.13E+00
       N       E                     dE             d eps       ncg     rms          rms(c)
DAV:   1    -0.189230186345E+04    0.53668E+01   -0.12317E-01  2824   0.294E+00    0.152E-01
RMM:   2    -0.189231469377E+04   -0.12830E-01   -0.13027E-01  1568   0.402E-01    0.146E-01
RMM:   3    -0.189231467078E+04    0.22986E-04   -0.43992E-03  1687   0.536E-02    0.109E-01
RMM:   4    -0.189231452622E+04    0.14457E-03   -0.55033E-04  1296   0.230E-02    0.554E-02
RMM:   5    -0.189231451546E+04    0.10755E-04   -0.54190E-05   920   0.800E-03
    8 T=  3333. E= -.17901571E+04 F= -.18923145E+04 E0= -.18923145E+04  EK= 0.10426E+03 SP= -.24E+01 SK= 0.29E+00
       N       E                     dE             d eps       ncg     rms          rms(c)
DAV:   1    -0.188678991450E+04    0.55246E+01   -0.14006E-01  2768   0.282E+00    0.194E-01
RMM:   2    -0.188680144872E+04   -0.11534E-01   -0.11983E-01  1568   0.377E-01    0.105E-01
RMM:   3    -0.188680150982E+04   -0.61107E-04   -0.40850E-03  1681   0.523E-02    0.687E-02
RMM:   4    -0.188680145553E+04    0.54290E-04   -0.33861E-04  1094   0.175E-02
    9 T=  3199. E= -.17901243E+04 F= -.18868015E+04 E0= -.18868015E+04  EK= 0.10008E+03 SP= -.40E+01 SK= 0.59E+00
       N       E                     dE             d eps       ncg     rms          rms(c)
DAV:   1    -0.188134028818E+04    0.54612E+01   -0.12054E-01  2752   0.272E+00    0.119E-01
RMM:   2    -0.188135092648E+04   -0.10638E-01   -0.10779E-01  1568   0.349E-01    0.132E-01
RMM:   3    -0.188135098099E+04   -0.54502E-04   -0.39183E-03  1666   0.501E-02    0.106E-01
RMM:   4    -0.188135088630E+04    0.94681E-04   -0.31073E-04  1076   0.172E-02
   10 T=  3082. E= -.17900975E+04 F= -.18813509E+04 E0= -.18813509E+04  EK= 0.96396E+02 SP= -.62E+01 SK= 0.11E+01
       N       E                     dE             d eps       ncg     rms          rms(c)
DAV:   1    -0.187616124686E+04    0.51897E+01   -0.12569E-01  2664   0.263E+00    0.134E-01
RMM:   2    -0.187617055314E+04   -0.93063E-02   -0.94435E-02  1568   0.320E-01    0.972E-02
RMM:   3    -0.187617068008E+04   -0.12693E-03   -0.35613E-03  1694   0.480E-02    0.737E-02
RMM:   4    -0.187617064651E+04    0.33573E-04   -0.20089E-04   955   0.140E-02
   11 T=  2988. E= -.17900786E+04 F= -.18761706E+04 E0= -.18761706E+04  EK= 0.93453E+02 SP= -.91E+01 SK= 0.18E+01
       N       E                     dE             d eps       ncg     rms          rms(c)
DAV:   1    -0.187143340270E+04    0.47373E+01   -0.14113E-01  2640   0.257E+00    0.182E-01
RMM:   2    -0.187144259949E+04   -0.91968E-02   -0.95473E-02  1568   0.323E-01    0.831E-02
RMM:   3    -0.187144267448E+04   -0.74985E-04   -0.33635E-03  1700   0.480E-02    0.542E-02
RMM:   4    -0.187144264222E+04    0.32256E-04   -0.20625E-04   974   0.139E-02
   12 T=  2924. E= -.17900685E+04 F= -.18714426E+04 E0= -.18714426E+04  EK= 0.91476E+02 SP= -.13E+02 SK= 0.27E+01
       N       E                     dE             d eps       ncg     rms          rms(c)
DAV:   1    -0.186730327460E+04    0.41394E+01   -0.15867E-01  2584   0.252E+00    0.126E-01
RMM:   2    -0.186731246111E+04   -0.91865E-02   -0.92211E-02  1568   0.308E-01    0.844E-02
RMM:   3    -0.186731259538E+04   -0.13427E-03   -0.35356E-03  1703   0.486E-02    0.652E-02
RMM:   4    -0.186731257241E+04    0.22970E-04   -0.16448E-04   958   0.119E-02
   13 T=  2898. E= -.17900689E+04 F= -.18673126E+04 E0= -.18673126E+04  EK= 0.90652E+02 SP= -.17E+02 SK= 0.40E+01
       N       E                     dE             d eps       ncg     rms          rms(c)
DAV:   1    -0.186387144326E+04    0.34412E+01   -0.16150E-01  2616   0.251E+00    0.122E-01
RMM:   2    -0.186388060731E+04   -0.91641E-02   -0.92461E-02  1568   0.302E-01    0.847E-02
RMM:   3    -0.186388078629E+04   -0.17897E-03   -0.37182E-03  1703   0.488E-02    0.676E-02
RMM:   4    -0.186388076961E+04    0.16678E-04   -0.16038E-04   962   0.116E-02
   14 T=  2913. E= -.17900804E+04 F= -.18638808E+04 E0= -.18638808E+04  EK= 0.91129E+02 SP= -.23E+02 SK= 0.55E+01
       N       E                     dE             d eps       ncg     rms          rms(c)
DAV:   1    -0.186118499658E+04    0.26958E+01   -0.15910E-01  2600   0.253E+00    0.134E-01
RMM:   2    -0.186119387616E+04   -0.88796E-02   -0.89941E-02  1568   0.300E-01    0.756E-02
RMM:   3    -0.186119405746E+04   -0.18130E-03   -0.36451E-03  1699   0.486E-02    0.585E-02
RMM:   4    -0.186119404613E+04    0.11329E-04   -0.15816E-04   962   0.113E-02
   15 T=  2973. E= -.17901025E+04 F= -.18611940E+04 E0= -.18611940E+04  EK= 0.93010E+02 SP= -.29E+02 SK= 0.71E+01
       N       E                     dE             d eps       ncg     rms          rms(c)
DAV:   1    -0.185923326602E+04    0.19608E+01   -0.14479E-01  2616   0.259E+00    0.111E-01
RMM:   2    -0.185924216280E+04   -0.88968E-02   -0.89475E-02  1568   0.298E-01    0.761E-02
RMM:   3    -0.185924236262E+04   -0.19982E-03   -0.37256E-03  1705   0.485E-02    0.613E-02
RMM:   4    -0.185924235082E+04    0.11798E-04   -0.14459E-04   950   0.108E-02
   16 T=  3080. E= -.17901339E+04 F= -.18592424E+04 E0= -.18592424E+04  EK= 0.96347E+02 SP= -.36E+02 SK= 0.88E+01
       N       E                     dE             d eps       ncg     rms          rms(c)
DAV:   1    -0.185795051350E+04    0.12918E+01   -0.12424E-01  2688   0.267E+00    0.106E-01
RMM:   2    -0.185795916045E+04   -0.86469E-02   -0.86937E-02  1568   0.295E-01    0.713E-02
RMM:   3    -0.185795938228E+04   -0.22183E-03   -0.37950E-03  1696   0.478E-02    0.563E-02
RMM:   4    -0.185795937340E+04    0.88719E-05   -0.14717E-04   958   0.109E-02
   17 T=  3233. E= -.17901735E+04 F= -.18579594E+04 E0= -.18579594E+04  EK= 0.10113E+03 SP= -.44E+02 SK= 0.10E+02
       N       E                     dE             d eps       ncg     rms          rms(c)
DAV:   1    -0.185721847225E+04    0.74091E+00   -0.11305E-01  2720   0.278E+00    0.130E-01
RMM:   2    -0.185722720673E+04   -0.87345E-02   -0.88630E-02  1568   0.304E-01    0.656E-02
RMM:   3    -0.185722742871E+04   -0.22198E-03   -0.39073E-03  1701   0.482E-02    0.468E-02
RMM:   4    -0.185722741984E+04    0.88751E-05   -0.16016E-04   969   0.114E-02
   18 T=  3430. E= -.17902196E+04 F= -.18572274E+04 E0= -.18572274E+04  EK= 0.10729E+03 SP= -.52E+02 SK= 0.12E+02
       N       E                     dE             d eps       ncg     rms          rms(c)
DAV:   1    -0.185687541578E+04    0.35201E+00   -0.12970E-01  2752   0.292E+00    0.119E-01
RMM:   2    -0.185688520153E+04   -0.97858E-02   -0.99017E-02  1568   0.329E-01    0.806E-02
RMM:   3    -0.185688541033E+04   -0.20879E-03   -0.41539E-03  1729   0.501E-02    0.603E-02
RMM:   4    -0.185688538970E+04    0.20625E-04   -0.17222E-04   973   0.120E-02
   19 T=  3666. E= -.17902703E+04 F= -.18568854E+04 E0= -.18568854E+04  EK= 0.11467E+03 SP= -.61E+02 SK= 0.13E+02
       N       E                     dE             d eps       ncg     rms          rms(c)
DAV:   1    -0.185672826425E+04    0.15715E+00   -0.17666E-01  2704   0.307E+00    0.124E-01
RMM:   2    -0.185674040297E+04   -0.12139E-01   -0.12246E-01  1568   0.369E-01    0.989E-02
RMM:   3    -0.185674061093E+04   -0.20796E-03   -0.48244E-03  1749   0.550E-02    0.758E-02
RMM:   4    -0.185674058541E+04    0.25523E-04   -0.23188E-04  1023   0.138E-02
   20 T=  3933. E= -.17903241E+04 F= -.18567406E+04 E0= -.18567406E+04  EK= 0.12304E+03 SP= -.70E+02 SK= 0.13E+02
       N       E                     dE             d eps       ncg     rms          rms(c)
DAV:   1    -0.185656948931E+04    0.17112E+00   -0.17997E-01  2752   0.323E+00    0.151E-01
RMM:   2    -0.185658294889E+04   -0.13460E-01   -0.13714E-01  1568   0.393E-01    0.107E-01
RMM:   3    -0.185658317999E+04   -0.23111E-03   -0.55489E-03  1756   0.579E-02    0.764E-02
RMM:   4    -0.185658314725E+04    0.32740E-04   -0.30177E-04  1079   0.159E-02
   21 T=  4222. E= -.17903791E+04 F= -.18565831E+04 E0= -.18565831E+04  EK= 0.13207E+03 SP= -.79E+02 SK= 0.13E+02
       N       E                     dE             d eps       ncg     rms          rms(c)
DAV:   1    -0.185618689624E+04    0.39628E+00   -0.17370E-01  2784   0.339E+00    0.158E-01
RMM:   2    -0.185620155268E+04   -0.14656E-01   -0.14933E-01  1568   0.414E-01    0.113E-01
RMM:   3    -0.185620179524E+04   -0.24256E-03   -0.61137E-03  1757   0.602E-02    0.808E-02
RMM:   4    -0.185620174503E+04    0.50219E-04   -0.33778E-04  1106   0.167E-02
   22 T=  4519. E= -.17904331E+04 F= -.18562017E+04 E0= -.18562017E+04  EK= 0.14135E+03 SP= -.88E+02 SK= 0.12E+02
       N       E                     dE             d eps       ncg     rms          rms(c)
DAV:   1    -0.185538395112E+04    0.81784E+00   -0.16693E-01  2784   0.354E+00    0.149E-01
RMM:   2    -0.185539962297E+04   -0.15672E-01   -0.15880E-01  1568   0.432E-01    0.121E-01
RMM:   3    -0.185539987788E+04   -0.25491E-03   -0.64420E-03  1765   0.619E-02    0.895E-02
RMM:   4    -0.185539981463E+04    0.63246E-04   -0.36665E-04  1121   0.175E-02
   23 T=  4808. E= -.17904843E+04 F= -.18553998E+04 E0= -.18553998E+04  EK= 0.15040E+03 SP= -.96E+02 SK= 0.11E+02
       N       E                     dE             d eps       ncg     rms          rms(c)
DAV:   1    -0.185399307934E+04    0.14068E+01   -0.18337E-01  2816   0.366E+00    0.167E-01
RMM:   2    -0.185401005856E+04   -0.16979E-01   -0.17288E-01  1568   0.452E-01    0.122E-01
RMM:   3    -0.185401033665E+04   -0.27810E-03   -0.69589E-03  1778   0.646E-02    0.877E-02
RMM:   4    -0.185401027327E+04    0.63389E-04   -0.39788E-04  1133   0.181E-02
   24 T=  5073. E= -.17905286E+04 F= -.18540103E+04 E0= -.18540103E+04  EK= 0.15869E+03 SP= -.10E+03 SK= 0.91E+01
       N       E                     dE             d eps       ncg     rms          rms(c)
DAV:   1    -0.185189463764E+04    0.21157E+01   -0.18739E-01  2816   0.377E+00    0.174E-01
RMM:   2    -0.185191233460E+04   -0.17697E-01   -0.18053E-01  1568   0.462E-01    0.120E-01
RMM:   3    -0.185191260979E+04   -0.27518E-03   -0.72933E-03  1769   0.661E-02    0.853E-02
RMM:   4    -0.185191254269E+04    0.67097E-04   -0.40902E-04  1142   0.179E-02
   25 T=  5297. E= -.17905629E+04 F= -.18519125E+04 E0= -.18519125E+04  EK= 0.16569E+03 SP= -.11E+03 SK= 0.70E+01
       N       E                     dE             d eps       ncg     rms          rms(c)
DAV:   1    -0.184902248341E+04    0.28901E+01   -0.20613E-01  2824   0.385E+00    0.153E-01
RMM:   2    -0.184904121914E+04   -0.18736E-01   -0.18931E-01  1568   0.466E-01    0.120E-01
RMM:   3    -0.184904152007E+04   -0.30094E-03   -0.77058E-03  1772   0.681E-02    0.914E-02
RMM:   4    -0.184904144445E+04    0.75628E-04   -0.42359E-04  1145   0.177E-02
   26 T=  5464. E= -.17905841E+04 F= -.18490414E+04 E0= -.18490414E+04  EK= 0.17093E+03 SP= -.12E+03 SK= 0.49E+01
       N       E                     dE             d eps       ncg     rms          rms(c)
DAV:   1    -0.184537401429E+04    0.36675E+01   -0.23625E-01  2816   0.389E+00    0.157E-01
RMM:   2    -0.184539375595E+04   -0.19742E-01   -0.19944E-01  1568   0.474E-01    0.112E-01
RMM:   3    -0.184539409541E+04   -0.33946E-03   -0.80349E-03  1772   0.699E-02    0.858E-02
RMM:   4    -0.184539403504E+04    0.60373E-04   -0.42514E-04  1143   0.174E-02
   27 T=  5565. E= -.17905893E+04 F= -.18453940E+04 E0= -.18453940E+04  EK= 0.17407E+03 SP= -.12E+03 SK= 0.30E+01
       N       E                     dE             d eps       ncg     rms          rms(c)
DAV:   1    -0.184100814465E+04    0.43860E+01   -0.24131E-01  2800   0.391E+00    0.171E-01
RMM:   2    -0.184102877420E+04   -0.20630E-01   -0.20929E-01  1568   0.485E-01    0.102E-01
RMM:   3    -0.184102915259E+04   -0.37839E-03   -0.85227E-03  1782   0.720E-02    0.772E-02
RMM:   4    -0.184102909865E+04    0.53940E-04   -0.40603E-04  1132   0.167E-02
   28 T=  5591. E= -.17905773E+04 F= -.18410291E+04 E0= -.18410291E+04  EK= 0.17491E+03 SP= -.13E+03 SK= 0.16E+01
       N       E                     dE             d eps       ncg     rms          rms(c)
DAV:   1    -0.183603734149E+04    0.49918E+01   -0.21404E-01  2792   0.390E+00    0.149E-01
RMM:   2    -0.183605873309E+04   -0.21392E-01   -0.21534E-01  1568   0.494E-01    0.111E-01
RMM:   3    -0.183605912346E+04   -0.39037E-03   -0.88948E-03  1782   0.726E-02    0.872E-02
RMM:   4    -0.183605906118E+04    0.62287E-04   -0.40698E-04  1131   0.163E-02
   29 T=  5545. E= -.17905485E+04 F= -.18360591E+04 E0= -.18360591E+04  EK= 0.17344E+03 SP= -.13E+03 SK= 0.59E+00
       N       E                     dE             d eps       ncg     rms          rms(c)
DAV:   1    -0.183061973246E+04    0.54394E+01   -0.22869E-01  2768   0.385E+00    0.159E-01
RMM:   2    -0.183064062594E+04   -0.20893E-01   -0.21072E-01  1568   0.505E-01    0.114E-01
RMM:   3    -0.183064097566E+04   -0.34971E-03   -0.85615E-03  1786   0.718E-02    0.871E-02
RMM:   4    -0.183064092160E+04    0.54051E-04   -0.41117E-04  1134   0.166E-02
   30 T=  5430. E= -.17905059E+04 F= -.18306409E+04 E0= -.18306409E+04  EK= 0.16986E+03 SP= -.13E+03 SK= 0.91E-01
       N       E                     dE             d eps       ncg     rms          rms(c)
DAV:   1    -0.182493400064E+04    0.57070E+01   -0.24828E-01  2800   0.379E+00    0.171E-01
RMM:   2    -0.182495549914E+04   -0.21499E-01   -0.21789E-01  1568   0.517E-01    0.119E-01
RMM:   3    -0.182495580894E+04   -0.30979E-03   -0.86344E-03  1791   0.723E-02    0.900E-02
RMM:   4    -0.182495574658E+04    0.62357E-04   -0.40395E-04  1129   0.167E-02
   31 T=  5259. E= -.17904533E+04 F= -.18249557E+04 E0= -.18249557E+04  EK= 0.16450E+03 SP= -.13E+03 SK= 0.13E-01
       N       E                     dE             d eps       ncg     rms          rms(c)
DAV:   1    -0.181916901785E+04    0.57868E+01   -0.22866E-01  2768   0.370E+00    0.154E-01
RMM:   2    -0.181918972717E+04   -0.20709E-01   -0.20857E-01  1568   0.507E-01    0.122E-01
RMM:   3    -0.181919006057E+04   -0.33340E-03   -0.86571E-03  1793   0.712E-02    0.937E-02
RMM:   4    -0.181918999905E+04    0.61516E-04   -0.37744E-04  1110   0.161E-02
   32 T=  5045. E= -.17903950E+04 F= -.18191900E+04 E0= -.18191900E+04  EK= 0.15781E+03 SP= -.13E+03 SK= 0.22E+00
       N       E                     dE             d eps       ncg     rms          rms(c)
DAV:   1    -0.181350007819E+04    0.56900E+01   -0.23531E-01  2728   0.359E+00    0.163E-01
RMM:   2    -0.181351974144E+04   -0.19663E-01   -0.19885E-01  1568   0.496E-01    0.115E-01
RMM:   3    -0.181352005463E+04   -0.31320E-03   -0.82309E-03  1798   0.699E-02    0.857E-02
RMM:   4    -0.181352000470E+04    0.49937E-04   -0.36703E-04  1108   0.159E-02
   33 T=  4804. E= -.17903353E+04 F= -.18135200E+04 E0= -.18135200E+04  EK= 0.15027E+03 SP= -.13E+03 SK= 0.58E+00
       N       E                     dE             d eps       ncg     rms          rms(c)
DAV:   1    -0.180807734922E+04    0.54427E+01   -0.21935E-01  2808   0.348E+00    0.154E-01
RMM:   2    -0.180809564144E+04   -0.18292E-01   -0.18522E-01  1568   0.475E-01    0.114E-01
RMM:   3    -0.180809595796E+04   -0.31652E-03   -0.78775E-03  1792   0.679E-02    0.854E-02
RMM:   4    -0.180809590571E+04    0.52249E-04   -0.35800E-04  1099   0.156E-02
   34 T=  4550. E= -.17902775E+04 F= -.18080959E+04 E0= -.18080959E+04  EK= 0.14234E+03 SP= -.13E+03 SK= 0.94E+00
       N       E                     dE             d eps       ncg     rms          rms(c)
DAV:   1    -0.180301833631E+04    0.50776E+01   -0.17476E-01  2856   0.336E+00    0.127E-01
RMM:   2    -0.180303415419E+04   -0.15818E-01   -0.15927E-01  1568   0.438E-01    0.106E-01
RMM:   3    -0.180303450955E+04   -0.35537E-03   -0.72815E-03  1789   0.641E-02    0.828E-02
RMM:   4    -0.180303446352E+04    0.46035E-04   -0.30919E-04  1081   0.145E-02
   35 T=  4298. E= -.17902241E+04 F= -.18030345E+04 E0= -.18030345E+04  EK= 0.13444E+03 SP= -.12E+03 SK= 0.12E+01
       N       E                     dE             d eps       ncg     rms          rms(c)
DAV:   1    -0.179840120091E+04    0.46333E+01   -0.16168E-01  2832   0.324E+00    0.138E-01
RMM:   2    -0.179841531368E+04   -0.14113E-01   -0.14307E-01  1568   0.413E-01    0.948E-02
RMM:   3    -0.179841564484E+04   -0.33116E-03   -0.65618E-03  1786   0.610E-02    0.701E-02
RMM:   4    -0.179841560848E+04    0.36360E-04   -0.27898E-04  1062   0.140E-02
   36 T=  4056. E= -.17901761E+04 F= -.17984156E+04 E0= -.17984156E+04  EK= 0.12689E+03 SP= -.12E+03 SK= 0.13E+01
       N       E                     dE             d eps       ncg     rms          rms(c)
DAV:   1    -0.179427185768E+04    0.41438E+01   -0.17378E-01  2776   0.314E+00    0.131E-01
RMM:   2    -0.179428522345E+04   -0.13366E-01   -0.13548E-01  1568   0.399E-01    0.945E-02
RMM:   3    -0.179428550361E+04   -0.28016E-03   -0.60111E-03  1789   0.593E-02    0.711E-02
RMM:   4    -0.179428546537E+04    0.38241E-04   -0.26551E-04  1047   0.137E-02
   37 T=  3834. E= -.17901344E+04 F= -.17942855E+04 E0= -.17942855E+04  EK= 0.11995E+03 SP= -.12E+03 SK= 0.13E+01
       N       E                     dE             d eps       ncg     rms          rms(c)
DAV:   1    -0.179064720844E+04    0.36383E+01   -0.15880E-01  2776   0.305E+00    0.110E-01
RMM:   2    -0.179065926682E+04   -0.12058E-01   -0.12154E-01  1568   0.373E-01    0.916E-02
RMM:   3    -0.179065956448E+04   -0.29765E-03   -0.57396E-03  1787   0.570E-02    0.721E-02
RMM:   4    -0.179065952955E+04    0.34924E-04   -0.24130E-04  1039   0.130E-02
   38 T=  3637. E= -.17900990E+04 F= -.17906595E+04 E0= -.17906595E+04  EK= 0.11377E+03 SP= -.11E+03 SK= 0.11E+01
       N       E                     dE             d eps       ncg     rms          rms(c)
DAV:   1    -0.178751758976E+04    0.31420E+01   -0.12861E-01  2856   0.297E+00    0.110E-01
RMM:   2    -0.178752863541E+04   -0.11046E-01   -0.11185E-01  1568   0.348E-01    0.847E-02
RMM:   3    -0.178752899077E+04   -0.35536E-03   -0.58391E-03  1786   0.556E-02    0.645E-02
RMM:   4    -0.178752895839E+04    0.32384E-04   -0.23450E-04  1024   0.131E-02
   39 T=  3467. E= -.17900700E+04 F= -.17875290E+04 E0= -.17875290E+04  EK= 0.10845E+03 SP= -.11E+03 SK= 0.84E+00
       N       E                     dE             d eps       ncg     rms          rms(c)
DAV:   1    -0.178485767940E+04    0.26713E+01   -0.10929E-01  2896   0.290E+00    0.113E-01
RMM:   2    -0.178486740014E+04   -0.97207E-02   -0.98905E-02  1568   0.327E-01    0.768E-02
RMM:   3    -0.178486770471E+04   -0.30457E-03   -0.50492E-03  1771   0.521E-02    0.565E-02
RMM:   4    -0.178486767615E+04    0.28562E-04   -0.21020E-04  1010   0.125E-02
   40 T=  3326. E= -.17900470E+04 F= -.17848677E+04 E0= -.17848677E+04  EK= 0.10405E+03 SP= -.11E+03 SK= 0.53E+00
       N       E                     dE             d eps       ncg     rms          rms(c)
DAV:   1    -0.178262959922E+04    0.22381E+01   -0.10082E-01  2864   0.285E+00    0.942E-02
RMM:   2    -0.178263826586E+04   -0.86666E-02   -0.87630E-02  1568   0.310E-01    0.791E-02
RMM:   3    -0.178263851980E+04   -0.25394E-03   -0.43982E-03  1764   0.492E-02    0.622E-02
RMM:   4    -0.178263848725E+04    0.32549E-04   -0.19181E-04   995   0.120E-02
   41 T=  3215. E= -.17900300E+04 F= -.17826385E+04 E0= -.17826385E+04  EK= 0.10056E+03 SP= -.11E+03 SK= 0.25E+00
       N       E                     dE             d eps       ncg     rms          rms(c)
DAV:   1    -0.178078744148E+04    0.18511E+01   -0.10520E-01  2832   0.281E+00    0.935E-02
RMM:   2    -0.178079564577E+04   -0.82043E-02   -0.82990E-02  1568   0.301E-01    0.766E-02
RMM:   3    -0.178079590041E+04   -0.25464E-03   -0.42374E-03  1763   0.483E-02    0.600E-02
RMM:   4    -0.178079587208E+04    0.28332E-04   -0.19611E-04   989   0.124E-02
   42 T=  3132. E= -.17900191E+04 F= -.17807959E+04 E0= -.17807958E+04  EK= 0.97969E+02 SP= -.11E+03 SK= 0.61E-01
       N       E                     dE             d eps       ncg     rms          rms(c)
DAV:   1    -0.177928096799E+04    0.15149E+01   -0.11699E-01  2800   0.279E+00    0.116E-01
RMM:   2    -0.177928951057E+04   -0.85426E-02   -0.87659E-02  1568   0.303E-01    0.706E-02
RMM:   3    -0.177928976251E+04   -0.25194E-03   -0.43540E-03  1775   0.494E-02    0.499E-02
RMM:   4    -0.177928973901E+04    0.23501E-04   -0.20144E-04   996   0.124E-02
   43 T=  3077. E= -.17900135E+04 F= -.17792897E+04 E0= -.17792894E+04  EK= 0.96250E+02 SP= -.11E+03 SK= 0.96E-03
       N       E                     dE             d eps       ncg     rms          rms(c)
DAV:   1    -0.177805990205E+04    0.12299E+01   -0.11587E-01  2848   0.279E+00    0.938E-02
RMM:   2    -0.177806853007E+04   -0.86280E-02   -0.87435E-02  1568   0.298E-01    0.716E-02
RMM:   3    -0.177806879496E+04   -0.26489E-03   -0.44428E-03  1781   0.492E-02    0.551E-02
RMM:   4    -0.177806876532E+04    0.29642E-04   -0.18495E-04   986   0.118E-02
   44 T=  3048. E= -.17900135E+04 F= -.17780688E+04 E0= -.17780678E+04  EK= 0.95359E+02 SP= -.11E+03 SK= 0.10E+00
       N       E                     dE             d eps       ncg     rms          rms(c)
DAV:   1    -0.177707143673E+04    0.99736E+00   -0.98750E-02  2816   0.279E+00    0.981E-02
RMM:   2    -0.177707920727E+04   -0.77705E-02   -0.79521E-02  1568   0.285E-01    0.908E-02
RMM:   3    -0.177707942196E+04   -0.21469E-03   -0.41796E-03  1769   0.482E-02    0.593E-02
RMM:   4    -0.177707940420E+04    0.17754E-04   -0.14445E-04   973   0.997E-03
   45 T=  3045. E= -.17900188E+04 F= -.17770794E+04 E0= -.17770781E+04  EK= 0.95255E+02 SP= -.11E+03 SK= 0.38E+00
       N       E                     dE             d eps       ncg     rms          rms(c)
DAV:   1    -0.177626044632E+04    0.81898E+00   -0.98449E-02  2808   0.280E+00    0.938E-02
RMM:   2    -0.177626796676E+04   -0.75204E-02   -0.76631E-02  1568   0.282E-01    0.733E-02
RMM:   3    -0.177626821312E+04   -0.24636E-03   -0.40180E-03  1772   0.471E-02    0.536E-02
RMM:   4    -0.177626819343E+04    0.19686E-04   -0.15646E-04   968   0.108E-02
   46 T=  3065. E= -.17900289E+04 F= -.17762682E+04 E0= -.17762666E+04  EK= 0.95892E+02 SP= -.11E+03 SK= 0.83E+00
       N       E                     dE             d eps       ncg     rms          rms(c)
DAV:   1    -0.177557609014E+04    0.69212E+00   -0.64096E-02  2888   0.282E+00    0.992E-02
RMM:   2    -0.177558301540E+04   -0.69253E-02   -0.71055E-02  1568   0.270E-01    0.675E-02
RMM:   3    -0.177558327591E+04   -0.26051E-03   -0.40429E-03  1748   0.455E-02    0.491E-02
RMM:   4    -0.177558324960E+04    0.26314E-04   -0.16027E-04   966   0.112E-02
   47 T=  3108. E= -.17900432E+04 F= -.17755832E+04 E0= -.17755819E+04  EK= 0.97223E+02 SP= -.11E+03 SK= 0.14E+01
       N       E                     dE             d eps       ncg     rms          rms(c)
DAV:   1    -0.177496918337E+04    0.61409E+00   -0.42347E-02  2880   0.286E+00    0.757E-02
RMM:   2    -0.177497534309E+04   -0.61597E-02   -0.62298E-02  1568   0.256E-01    0.697E-02
RMM:   3    -0.177497558739E+04   -0.24431E-03   -0.37123E-03  1736   0.428E-02    0.557E-02
RMM:   4    -0.177497554910E+04    0.38293E-04   -0.16331E-04   954   0.117E-02
   48 T=  3171. E= -.17900613E+04 F= -.17749755E+04 E0= -.17749746E+04  EK= 0.99205E+02 SP= -.12E+03 SK= 0.21E+01
       N       E                     dE             d eps       ncg     rms          rms(c)
DAV:   1    -0.177439421760E+04    0.58137E+00   -0.43583E-02  2856   0.289E+00    0.924E-02
RMM:   2    -0.177440007715E+04   -0.58595E-02   -0.60073E-02  1568   0.255E-01    0.623E-02
RMM:   3    -0.177440031204E+04   -0.23489E-03   -0.34948E-03  1731   0.419E-02    0.456E-02
RMM:   4    -0.177440028696E+04    0.25073E-04   -0.16516E-04   956   0.119E-02
   49 T=  3254. E= -.17900823E+04 F= -.17744003E+04 E0= -.17743999E+04  EK= 0.10179E+03 SP= -.12E+03 SK= 0.29E+01
       N       E                     dE             d eps       ncg     rms          rms(c)
DAV:   1    -0.177381126712E+04    0.58904E+00   -0.40311E-02  2832   0.295E+00    0.102E-01
RMM:   2    -0.177381735195E+04   -0.60848E-02   -0.63123E-02  1568   0.263E-01    0.712E-02
RMM:   3    -0.177381756412E+04   -0.21217E-03   -0.35937E-03  1736   0.425E-02    0.516E-02
RMM:   4    -0.177381752318E+04    0.40934E-04   -0.19903E-04   973   0.130E-02
   50 T=  3354. E= -.17901055E+04 F= -.17738175E+04 E0= -.17738175E+04  EK= 0.10493E+03 SP= -.12E+03 SK= 0.37E+01
       N       E                     dE             d eps       ncg     rms          rms(c)
DAV:   1    -0.177318703700E+04    0.63053E+00   -0.42331E-02  2888   0.300E+00    0.836E-02
RMM:   2    -0.177319331140E+04   -0.62744E-02   -0.63714E-02  1568   0.266E-01    0.683E-02
RMM:   3    -0.177319355744E+04   -0.24605E-03   -0.37462E-03  1743   0.431E-02    0.531E-02
RMM:   4    -0.177319352176E+04    0.35686E-04   -0.16965E-04   957   0.120E-02
   51 T=  3471. E= -.17901305E+04 F= -.17731935E+04 E0= -.17731935E+04  EK= 0.10858E+03 SP= -.13E+03 SK= 0.44E+01
       N       E                     dE             d eps       ncg     rms          rms(c)
DAV:   1    -0.177249372165E+04    0.69984E+00   -0.48086E-02  2904   0.307E+00    0.973E-02
RMM:   2    -0.177250062625E+04   -0.69046E-02   -0.70699E-02  1568   0.279E-01    0.777E-02
RMM:   3    -0.177250087238E+04   -0.24613E-03   -0.40472E-03  1762   0.453E-02    0.590E-02
RMM:   4    -0.177250082515E+04    0.47229E-04   -0.22471E-04   995   0.137E-02
   52 T=  3602. E= -.17901568E+04 F= -.17725008E+04 E0= -.17725008E+04  EK= 0.11267E+03 SP= -.14E+03 SK= 0.51E+01
       N       E                     dE             d eps       ncg     rms          rms(c)
DAV:   1    -0.177171179163E+04    0.78908E+00   -0.56106E-02  2896   0.312E+00    0.996E-02
RMM:   2    -0.177171936589E+04   -0.75743E-02   -0.77472E-02  1568   0.291E-01    0.764E-02
RMM:   3    -0.177171964701E+04   -0.28112E-03   -0.44759E-03  1780   0.474E-02    0.582E-02
RMM:   4    -0.177171960028E+04    0.46736E-04   -0.21180E-04   990   0.132E-02
   53 T=  3745. E= -.17901836E+04 F= -.17717196E+04 E0= -.17717196E+04  EK= 0.11714E+03 SP= -.14E+03 SK= 0.55E+01
       N       E                     dE             d eps       ncg     rms          rms(c)
DAV:   1    -0.177082977934E+04    0.88987E+00   -0.60559E-02  2928   0.318E+00    0.101E-01
RMM:   2    -0.177083784214E+04   -0.80628E-02   -0.82253E-02  1568   0.302E-01    0.810E-02
RMM:   3    -0.177083812650E+04   -0.28436E-03   -0.46567E-03  1802   0.486E-02    0.622E-02
RMM:   4    -0.177083807606E+04    0.50438E-04   -0.21476E-04   987   0.132E-02
   54 T=  3897. E= -.17902109E+04 F= -.17708381E+04 E0= -.17708381E+04  EK= 0.12191E+03 SP= -.15E+03 SK= 0.58E+01
       N       E                     dE             d eps       ncg     rms          rms(c)
DAV:   1    -0.176984132470E+04    0.99680E+00   -0.75936E-02  2872   0.324E+00    0.978E-02
RMM:   2    -0.176985032154E+04   -0.89968E-02   -0.91292E-02  1568   0.319E-01    0.845E-02
RMM:   3    -0.176985062763E+04   -0.30609E-03   -0.50237E-03  1811   0.510E-02    0.674E-02
RMM:   4    -0.176985057463E+04    0.52997E-04   -0.22402E-04  1000   0.134E-02
   55 T=  4056. E= -.17902379E+04 F= -.17698506E+04 E0= -.17698506E+04  EK= 0.12688E+03 SP= -.15E+03 SK= 0.58E+01
       N       E                     dE             d eps       ncg     rms          rms(c)
DAV:   1    -0.176874665561E+04    0.11040E+01   -0.10319E-01  2848   0.330E+00    0.118E-01
RMM:   2    -0.176875703262E+04   -0.10377E-01   -0.10618E-01  1568   0.344E-01    0.869E-02
RMM:   3    -0.176875736770E+04   -0.33508E-03   -0.56106E-03  1823   0.547E-02    0.674E-02
RMM:   4    -0.176875731549E+04    0.52208E-04   -0.25738E-04  1038   0.142E-02
   56 T=  4218. E= -.17902643E+04 F= -.17687573E+04 E0= -.17687573E+04  EK= 0.13194E+03 SP= -.16E+03 SK= 0.56E+01
       N       E                     dE             d eps       ncg     rms          rms(c)
DAV:   1    -0.176755098675E+04    0.12064E+01   -0.76882E-02  2896   0.335E+00    0.110E-01
RMM:   2    -0.176756168034E+04   -0.10694E-01   -0.10894E-01  1568   0.345E-01    0.864E-02
RMM:   3    -0.176756208826E+04   -0.40792E-03   -0.62666E-03  1828   0.558E-02    0.682E-02
RMM:   4    -0.176756203645E+04    0.51802E-04   -0.22649E-04  1018   0.131E-02
   57 T=  4378. E= -.17902901E+04 F= -.17675620E+04 E0= -.17675620E+04  EK= 0.13696E+03 SP= -.16E+03 SK= 0.52E+01
       N       E                     dE             d eps       ncg     rms          rms(c)
DAV:   1    -0.176625842397E+04    0.13037E+01   -0.91515E-02  2880   0.340E+00    0.120E-01
RMM:   2    -0.176626953602E+04   -0.11112E-01   -0.11345E-01  1568   0.358E-01    0.886E-02
RMM:   3    -0.176626993184E+04   -0.39582E-03   -0.63595E-03  1838   0.569E-02    0.699E-02
RMM:   4    -0.176626987591E+04    0.55933E-04   -0.26120E-04  1048   0.141E-02
   58 T=  4533. E= -.17903151E+04 F= -.17662699E+04 E0= -.17662699E+04  EK= 0.14179E+03 SP= -.17E+03 SK= 0.46E+01
       N       E                     dE             d eps       ncg     rms          rms(c)
DAV:   1    -0.176487134360E+04    0.13986E+01   -0.11289E-01  2832   0.344E+00    0.137E-01
RMM:   2    -0.176488344827E+04   -0.12105E-01   -0.12414E-01  1568   0.378E-01    0.861E-02
RMM:   3    -0.176488385380E+04   -0.40554E-03   -0.66361E-03  1832   0.591E-02    0.652E-02
RMM:   4    -0.176488380664E+04    0.47164E-04   -0.26034E-04  1041   0.140E-02
   59 T=  4676. E= -.17903382E+04 F= -.17648838E+04 E0= -.17648838E+04  EK= 0.14626E+03 SP= -.18E+03 SK= 0.38E+01
       N       E                     dE             d eps       ncg     rms          rms(c)
DAV:   1    -0.176339048999E+04    0.14934E+01   -0.11639E-01  2904   0.348E+00    0.126E-01
RMM:   2    -0.176340365205E+04   -0.13162E-01   -0.13407E-01  1568   0.393E-01    0.957E-02
RMM:   3    -0.176340408908E+04   -0.43703E-03   -0.72660E-03  1840   0.614E-02    0.760E-02
RMM:   4    -0.176340402885E+04    0.60239E-04   -0.28076E-04  1057   0.145E-02
   60 T=  4801. E= -.17903585E+04 F= -.17634040E+04 E0= -.17634040E+04  EK= 0.15019E+03 SP= -.18E+03 SK= 0.30E+01
       N       E                     dE             d eps       ncg     rms          rms(c)
DAV:   1    -0.176181479007E+04    0.15893E+01   -0.12068E-01  2872   0.350E+00    0.127E-01
RMM:   2    -0.176182839222E+04   -0.13602E-01   -0.13825E-01  1568   0.401E-01    0.908E-02
RMM:   3    -0.176182887849E+04   -0.48626E-03   -0.75917E-03  1832   0.626E-02    0.729E-02
RMM:   4    -0.176182882933E+04    0.49156E-04   -0.27774E-04  1053   0.144E-02
   61 T=  4904. E= -.17903748E+04 F= -.17618288E+04 E0= -.17618288E+04  EK= 0.15341E+03 SP= -.18E+03 SK= 0.21E+01
       N       E                     dE             d eps       ncg     rms          rms(c)
DAV:   1    -0.176014336947E+04    0.16855E+01   -0.12935E-01  2848   0.351E+00    0.144E-01
RMM:   2    -0.176015771124E+04   -0.14342E-01   -0.14676E-01  1568   0.414E-01    0.961E-02
RMM:   3    -0.176015817528E+04   -0.46404E-03   -0.77640E-03  1841   0.641E-02    0.740E-02
RMM:   4    -0.176015811766E+04    0.57619E-04   -0.30487E-04  1070   0.151E-02
   62 T=  4980. E= -.17903861E+04 F= -.17601581E+04 E0= -.17601581E+04  EK= 0.15577E+03 SP= -.19E+03 SK= 0.14E+01
       N       E                     dE             d eps       ncg     rms          rms(c)
DAV:   1    -0.175838256090E+04    0.17756E+01   -0.11854E-01  2848   0.352E+00    0.128E-01
RMM:   2    -0.175839674115E+04   -0.14180E-01   -0.14375E-01  1568   0.412E-01    0.937E-02
RMM:   3    -0.175839722608E+04   -0.48492E-03   -0.77654E-03  1834   0.634E-02    0.749E-02
RMM:   4    -0.175839717161E+04    0.54465E-04   -0.29262E-04  1068   0.146E-02
   63 T=  5024. E= -.17903917E+04 F= -.17583972E+04 E0= -.17583972E+04  EK= 0.15715E+03 SP= -.19E+03 SK= 0.73E+00
       N       E                     dE             d eps       ncg     rms          rms(c)
DAV:   1    -0.175654457804E+04    0.18526E+01   -0.11676E-01  2888   0.351E+00    0.136E-01
RMM:   2    -0.175655864294E+04   -0.14065E-01   -0.14312E-01  1568   0.415E-01    0.955E-02
RMM:   3    -0.175655911283E+04   -0.46989E-03   -0.76899E-03  1836   0.632E-02    0.739E-02
RMM:   4    -0.175655905622E+04    0.56608E-04   -0.31879E-04  1088   0.154E-02
   64 T=  5034. E= -.17903903E+04 F= -.17565591E+04 E0= -.17565591E+04  EK= 0.15748E+03 SP= -.19E+03 SK= 0.29E+00
       N       E                     dE             d eps       ncg     rms          rms(c)
DAV:   1    -0.175465479462E+04    0.19043E+01   -0.12155E-01  2888   0.349E+00    0.135E-01
RMM:   2    -0.175466879318E+04   -0.13999E-01   -0.14222E-01  1568   0.417E-01    0.954E-02
RMM:   3    -0.175466923428E+04   -0.44110E-03   -0.73924E-03  1834   0.627E-02    0.741E-02
RMM:   4    -0.175466917805E+04    0.56229E-04   -0.30625E-04  1080   0.152E-02
   65 T=  5012. E= -.17903823E+04 F= -.17546692E+04 E0= -.17546692E+04  EK= 0.15677E+03 SP= -.19E+03 SK= 0.47E-01
       N       E                     dE             d eps       ncg     rms          rms(c)
DAV:   1    -0.175275163828E+04    0.19176E+01   -0.12115E-01  2864   0.346E+00    0.128E-01
RMM:   2    -0.175276575321E+04   -0.14115E-01   -0.14299E-01  1568   0.416E-01    0.953E-02
RMM:   3    -0.175276621653E+04   -0.46331E-03   -0.76325E-03  1836   0.630E-02    0.743E-02
RMM:   4    -0.175276616095E+04    0.55574E-04   -0.30778E-04  1076   0.150E-02
   66 T=  4957. E= -.17903681E+04 F= -.17527662E+04 E0= -.17527662E+04  EK= 0.15507E+03 SP= -.19E+03 SK= 0.79E-02
       N       E                     dE             d eps       ncg     rms          rms(c)
DAV:   1    -0.175088448438E+04    0.18817E+01   -0.12451E-01  2832   0.342E+00    0.127E-01
RMM:   2    -0.175089882253E+04   -0.14338E-01   -0.14506E-01  1568   0.417E-01    0.966E-02
RMM:   3    -0.175089927644E+04   -0.45392E-03   -0.76343E-03  1834   0.634E-02    0.763E-02
RMM:   4    -0.175089921862E+04    0.57819E-04   -0.32572E-04  1089   0.155E-02
   67 T=  4875. E= -.17903492E+04 F= -.17508992E+04 E0= -.17508992E+04  EK= 0.15250E+03 SP= -.19E+03 SK= 0.14E+00
       N       E                     dE             d eps       ncg     rms          rms(c)
DAV:   1    -0.174910805960E+04    0.17912E+01   -0.12905E-01  2848   0.337E+00    0.129E-01
RMM:   2    -0.174912210891E+04   -0.14049E-01   -0.14230E-01  1568   0.413E-01    0.973E-02
RMM:   3    -0.174912254205E+04   -0.43314E-03   -0.74247E-03  1834   0.628E-02    0.761E-02
RMM:   4    -0.174912248418E+04    0.57872E-04   -0.32967E-04  1090   0.156E-02
   68 T=  4770. E= -.17903266E+04 F= -.17491225E+04 E0= -.17491225E+04  EK= 0.14923E+03 SP= -.19E+03 SK= 0.40E+00
       N       E                     dE             d eps       ncg     rms          rms(c)
DAV:   1    -0.174747844004E+04    0.16441E+01   -0.12301E-01  2848   0.332E+00    0.126E-01
RMM:   2    -0.174749165305E+04   -0.13213E-01   -0.13395E-01  1568   0.401E-01    0.936E-02
RMM:   3    -0.174749207035E+04   -0.41729E-03   -0.70795E-03  1826   0.611E-02    0.731E-02
RMM:   4    -0.174749201437E+04    0.55977E-04   -0.31128E-04  1078   0.152E-02
   69 T=  4649. E= -.17903015E+04 F= -.17474920E+04 E0= -.17474920E+04  EK= 0.14544E+03 SP= -.19E+03 SK= 0.72E+00
       N       E                     dE             d eps       ncg     rms          rms(c)
DAV:   1    -0.174604831417E+04    0.14438E+01   -0.12415E-01  2880   0.327E+00    0.124E-01
RMM:   2    -0.174606119580E+04   -0.12882E-01   -0.13055E-01  1568   0.393E-01    0.941E-02
RMM:   3    -0.174606159222E+04   -0.39642E-03   -0.69696E-03  1816   0.603E-02    0.736E-02
RMM:   4    -0.174606153642E+04    0.55799E-04   -0.30611E-04  1078   0.149E-02
   70 T=  4518. E= -.17902757E+04 F= -.17460615E+04 E0= -.17460615E+04  EK= 0.14133E+03 SP= -.19E+03 SK= 0.11E+01
       N       E                     dE             d eps       ncg     rms          rms(c)
DAV:   1    -0.174486587412E+04    0.11957E+01   -0.87038E-02  2976   0.321E+00    0.116E-01
RMM:   2    -0.174487729212E+04   -0.11418E-01   -0.11587E-01  1568   0.371E-01    0.956E-02
RMM:   3    -0.174487767471E+04   -0.38259E-03   -0.65037E-03  1814   0.575E-02    0.751E-02
RMM:   4    -0.174487762913E+04    0.45580E-04   -0.23916E-04  1029   0.131E-02
   71 T=  4383. E= -.17902506E+04 F= -.17448776E+04 E0= -.17448774E+04  EK= 0.13710E+03 SP= -.18E+03 SK= 0.14E+01
       N       E                     dE             d eps       ncg     rms          rms(c)
DAV:   1    -0.174396631583E+04    0.91136E+00   -0.64233E-02  3016   0.315E+00    0.117E-01
RMM:   2    -0.174397639437E+04   -0.10079E-01   -0.10291E-01  1568   0.350E-01    0.994E-02
RMM:   3    -0.174397672986E+04   -0.33549E-03   -0.59057E-03  1804   0.542E-02    0.791E-02
RMM:   4    -0.174397668179E+04    0.48067E-04   -0.22730E-04  1018   0.129E-02
   72 T=  4250. E= -.17902266E+04 F= -.17439767E+04 E0= -.17439762E+04  EK= 0.13293E+03 SP= -.18E+03 SK= 0.16E+01
       N       E                     dE             d eps       ncg     rms          rms(c)
DAV:   1    -0.174337429751E+04    0.60243E+00   -0.69140E-02  2904   0.310E+00    0.134E-01
RMM:   2    -0.174338390089E+04   -0.96034E-02   -0.99458E-02  1568   0.344E-01    0.110E-01
RMM:   3    -0.174338415256E+04   -0.25168E-03   -0.53999E-03  1791   0.532E-02    0.869E-02
RMM:   4    -0.174338410048E+04    0.52081E-04   -0.21339E-04  1005   0.124E-02
   73 T=  4123. E= -.17902047E+04 F= -.17433841E+04 E0= -.17433832E+04  EK= 0.12897E+03 SP= -.18E+03 SK= 0.18E+01
       N       E                     dE             d eps       ncg     rms          rms(c)
DAV:   1    -0.174310414930E+04    0.28000E+00   -0.78195E-02  2952   0.305E+00    0.154E-01
RMM:   2    -0.174311373409E+04   -0.95848E-02   -0.10161E-01  1568   0.344E-01    0.116E-01
RMM:   3    -0.174311391274E+04   -0.17866E-03   -0.52437E-03  1794   0.532E-02    0.897E-02
RMM:   4    -0.174311384193E+04    0.70806E-04   -0.26995E-04  1047   0.142E-02
   74 T=  4006. E= -.17901850E+04 F= -.17431138E+04 E0= -.17431123E+04  EK= 0.12532E+03 SP= -.17E+03 SK= 0.18E+01
       N       E                     dE             d eps       ncg     rms          rms(c)
DAV:   1    -0.174315991834E+04   -0.46006E-01   -0.87935E-02  2928   0.301E+00    0.187E-01
RMM:   2    -0.174316980532E+04   -0.98870E-02   -0.10792E-01  1568   0.347E-01    0.144E-01
RMM:   3    -0.174317000853E+04   -0.20321E-03   -0.55575E-03  1790   0.557E-02    0.143E-01
RMM:   4    -0.174316984533E+04    0.16320E-03   -0.29793E-04  1047   0.148E-02    0.866E-02
RMM:   5    -0.174316976785E+04    0.77480E-04   -0.35675E-04  1067   0.167E-02
   75 T=  3903. E= -.17901677E+04 F= -.17431698E+04 E0= -.17431677E+04  EK= 0.12209E+03 SP= -.17E+03 SK= 0.18E+01
       N       E                     dE             d eps       ncg     rms          rms(c)
DAV:   1    -0.174353770181E+04   -0.36786E+00   -0.72404E-02  2904   0.298E+00    0.179E-01
RMM:   2    -0.174354689151E+04   -0.91897E-02   -0.98422E-02  1568   0.327E-01    0.106E-01
RMM:   3    -0.174354711090E+04   -0.21940E-03   -0.53406E-03  1793   0.537E-02    0.877E-02
RMM:   4    -0.174354706160E+04    0.49302E-04   -0.24860E-04  1026   0.131E-02
   76 T=  3814. E= -.17901531E+04 F= -.17435471E+04 E0= -.17435445E+04  EK= 0.11932E+03 SP= -.17E+03 SK= 0.17E+01
       N       E                     dE             d eps       ncg     rms          rms(c)
DAV:   1    -0.174422164190E+04   -0.67453E+00   -0.64532E-02  2928   0.295E+00    0.136E-01
RMM:   2    -0.174423098005E+04   -0.93382E-02   -0.97548E-02  1568   0.324E-01    0.137E-01
RMM:   3    -0.174423110392E+04   -0.12386E-03   -0.51084E-03  1773   0.526E-02    0.117E-01
RMM:   4    -0.174423103482E+04    0.69098E-04   -0.21253E-04  1008   0.123E-02
   77 T=  3742. E= -.17901419E+04 F= -.17442310E+04 E0= -.17442275E+04  EK= 0.11706E+03 SP= -.16E+03 SK= 0.15E+01
       N       E                     dE             d eps       ncg     rms          rms(c)
DAV:   1    -0.174519106000E+04   -0.95996E+00   -0.74569E-02  2936   0.293E+00    0.232E-01
RMM:   2    -0.174520011924E+04   -0.90592E-02   -0.10633E-01  1568   0.332E-01    0.163E-01
RMM:   3    -0.174520008964E+04    0.29602E-04   -0.51031E-03  1776   0.543E-02    0.131E-01
RMM:   4    -0.174520001208E+04    0.77559E-04   -0.29803E-04  1057   0.144E-02
   78 T=  3686. E= -.17901343E+04 F= -.17452000E+04 E0= -.17451963E+04  EK= 0.11532E+03 SP= -.16E+03 SK= 0.13E+01
       N       E                     dE             d eps       ncg     rms          rms(c)
DAV:   1    -0.174641681284E+04   -0.12167E+01   -0.89809E-02  2920   0.292E+00    0.270E-01
RMM:   2    -0.174642716920E+04   -0.10356E-01   -0.12338E-01  1568   0.355E-01    0.197E-01
RMM:   3    -0.174642722910E+04   -0.59897E-04   -0.54045E-03  1756   0.584E-02    0.289E-01
RMM:   4    -0.174642674117E+04    0.48792E-03   -0.43615E-04  1127   0.185E-02    0.111E-01
RMM:   5    -0.174642667095E+04    0.70223E-04   -0.26885E-04  1007   0.157E-02
   79 T=  3647. E= -.17901290E+04 F= -.17464267E+04 E0= -.17464218E+04  EK= 0.11408E+03 SP= -.16E+03 SK= 0.11E+01
       N       E                     dE             d eps       ncg     rms          rms(c)
DAV:   1    -0.174786752139E+04   -0.14408E+01   -0.99584E-02  2856   0.292E+00    0.256E-01
RMM:   2    -0.174787857275E+04   -0.11051E-01   -0.12787E-01  1568   0.356E-01    0.181E-01
RMM:   3    -0.174787829915E+04    0.27360E-03   -0.53710E-03  1756   0.588E-02    0.139E-01
RMM:   4    -0.174787820525E+04    0.93903E-04   -0.31968E-04  1088   0.145E-02
   80 T=  3623. E= -.17901267E+04 F= -.17478782E+04 E0= -.17478724E+04  EK= 0.11334E+03 SP= -.16E+03 SK= 0.83E+00
       N       E                     dE             d eps       ncg     rms          rms(c)
DAV:   1    -0.174950771297E+04   -0.16294E+01   -0.98493E-02  2920   0.291E+00    0.359E-01
RMM:   2    -0.174951730761E+04   -0.95946E-02   -0.13654E-01  1568   0.364E-01    0.222E-01
RMM:   3    -0.174951826240E+04   -0.95479E-03   -0.65183E-03  1750   0.633E-02    0.424E-01
RMM:   4    -0.174951682590E+04    0.14365E-02   -0.86245E-04  1302   0.248E-02    0.108E-01
RMM:   5    -0.174951680006E+04    0.25834E-04   -0.65469E-04  1288   0.228E-02
   81 T=  3614. E= -.17901273E+04 F= -.17495168E+04 E0= -.17495105E+04  EK= 0.11306E+03 SP= -.15E+03 SK= 0.63E+00
       N       E                     dE             d eps       ncg     rms          rms(c)
DAV:   1    -0.175129335042E+04   -0.17765E+01   -0.91541E-02  2888   0.292E+00    0.305E-01
RMM:   2    -0.175130362116E+04   -0.10271E-01   -0.11951E-01  1568   0.340E-01    0.407E-01
RMM:   3    -0.175130496121E+04   -0.13401E-02   -0.78078E-03  1742   0.670E-02    0.801E-01
RMM:   4    -0.175130210226E+04    0.28590E-02   -0.14810E-03  1404   0.393E-02    0.131E-01
RMM:   5    -0.175130244594E+04   -0.34367E-03   -0.45142E-04  1139   0.239E-02    0.470E-02
RMM:   6    -0.175130243237E+04    0.13568E-04   -0.16517E-04   933   0.118E-02
   82 T=  3618. E= -.17901304E+04 F= -.17513024E+04 E0= -.17512957E+04  EK= 0.11319E+03 SP= -.15E+03 SK= 0.46E+00
       N       E                     dE             d eps       ncg     rms          rms(c)
DAV:   1    -0.175318436636E+04   -0.18819E+01   -0.63437E-02  2944   0.293E+00    0.132E-01
RMM:   2    -0.175319325816E+04   -0.88918E-02   -0.89688E-02  1568   0.298E-01    0.278E-01
RMM:   3    -0.175319356886E+04   -0.31070E-03   -0.55750E-03  1785   0.542E-02    0.268E-01
RMM:   4    -0.175319309254E+04    0.47631E-03   -0.46256E-04  1160   0.209E-02    0.847E-02
RMM:   5    -0.175319302300E+04    0.69547E-04   -0.38095E-04  1099   0.173E-02
   83 T=  3634. E= -.17901358E+04 F= -.17531930E+04 E0= -.17531857E+04  EK= 0.11368E+03 SP= -.15E+03 SK= 0.31E+00
       N       E                     dE             d eps       ncg     rms          rms(c)
DAV:   1    -0.175513829300E+04   -0.19452E+01   -0.75719E-02  2856   0.294E+00    0.106E-01
RMM:   2    -0.175514655840E+04   -0.82654E-02   -0.81666E-02  1568   0.287E-01    0.251E-01
RMM:   3    -0.175514667568E+04   -0.11728E-03   -0.50417E-03  1781   0.521E-02    0.208E-01
RMM:   4    -0.175514646661E+04    0.20907E-03   -0.29204E-04  1026   0.169E-02    0.810E-02
RMM:   5    -0.175514642239E+04    0.44220E-04   -0.32974E-04  1056   0.164E-02
   84 T=  3660. E= -.17901436E+04 F= -.17551464E+04 E0= -.17551388E+04  EK= 0.11449E+03 SP= -.15E+03 SK= 0.20E+00
       N       E                     dE             d eps       ncg     rms          rms(c)
DAV:   1    -0.175711383526E+04   -0.19674E+01   -0.86328E-02  2864   0.296E+00    0.138E-01
RMM:   2    -0.175712227342E+04   -0.84382E-02   -0.86014E-02  1568   0.296E-01    0.237E-01
RMM:   3    -0.175712274592E+04   -0.47250E-03   -0.50804E-03  1778   0.535E-02    0.357E-01
RMM:   4    -0.175712215617E+04    0.58976E-03   -0.44797E-04  1124   0.210E-02    0.670E-02
RMM:   5    -0.175712220262E+04   -0.46456E-04   -0.22924E-04   966   0.156E-02
   85 T=  3694. E= -.17901526E+04 F= -.17571222E+04 E0= -.17571145E+04  EK= 0.11555E+03 SP= -.15E+03 SK= 0.12E+00
       N       E                     dE             d eps       ncg     rms          rms(c)
DAV:   1    -0.175907609716E+04   -0.19539E+01   -0.63798E-02  2936   0.299E+00    0.959E-02
RMM:   2    -0.175908387340E+04   -0.77762E-02   -0.79203E-02  1568   0.285E-01    0.873E-02
RMM:   3    -0.175908414545E+04   -0.27205E-03   -0.44509E-03  1771   0.490E-02    0.983E-02
RMM:   4    -0.175908410630E+04    0.39148E-04   -0.18896E-04  1003   0.112E-02
   86 T=  3734. E= -.17901629E+04 F= -.17590841E+04 E0= -.17590762E+04  EK= 0.11681E+03 SP= -.15E+03 SK= 0.68E-01
       N       E                     dE             d eps       ncg     rms          rms(c)
DAV:   1    -0.176099232844E+04   -0.19082E+01   -0.52865E-02  2968   0.301E+00    0.104E-01
RMM:   2    -0.176099963679E+04   -0.73083E-02   -0.75280E-02  1568   0.278E-01    0.104E-01
RMM:   3    -0.176099991153E+04   -0.27474E-03   -0.43764E-03  1778   0.478E-02    0.128E-01
RMM:   4    -0.176099983776E+04    0.73772E-04   -0.17162E-04   971   0.114E-02
   87 T=  3779. E= -.17901744E+04 F= -.17609998E+04 E0= -.17609918E+04  EK= 0.11820E+03 SP= -.15E+03 SK= 0.34E-01
       N       E                     dE             d eps       ncg     rms          rms(c)
DAV:   1    -0.176283358861E+04   -0.18337E+01   -0.61095E-02  2960   0.303E+00    0.170E-01
RMM:   2    -0.176284182900E+04   -0.82404E-02   -0.89615E-02  1568   0.299E-01    0.150E-01
RMM:   3    -0.176284242519E+04   -0.59619E-03   -0.48643E-03  1788   0.524E-02    0.381E-01
RMM:   4    -0.176284178566E+04    0.63954E-03   -0.38704E-04  1090   0.185E-02    0.862E-02
RMM:   5    -0.176284182476E+04   -0.39102E-04   -0.16943E-04   935   0.143E-02
   88 T=  3826. E= -.17901858E+04 F= -.17628418E+04 E0= -.17628343E+04  EK= 0.11967E+03 SP= -.15E+03 SK= 0.15E-01
       N       E                     dE             d eps       ncg     rms          rms(c)
DAV:   1    -0.176457859059E+04   -0.17368E+01   -0.79531E-02  2888   0.306E+00    0.167E-01
RMM:   2    -0.176458825783E+04   -0.96672E-02   -0.10276E-01  1568   0.319E-01    0.143E-01
RMM:   3    -0.176458860767E+04   -0.34985E-03   -0.50994E-03  1793   0.550E-02    0.290E-01
RMM:   4    -0.176458822231E+04    0.38537E-03   -0.33080E-04  1070   0.162E-02    0.868E-02
RMM:   5    -0.176458817984E+04    0.42469E-04   -0.28664E-04  1016   0.164E-02
   89 T=  3874. E= -.17901969E+04 F= -.17645882E+04 E0= -.17645808E+04  EK= 0.12118E+03 SP= -.15E+03 SK= 0.59E-02
       N       E                     dE             d eps       ncg     rms          rms(c)
DAV:   1    -0.176621060517E+04   -0.16224E+01   -0.61473E-02  2960   0.308E+00    0.153E-01
RMM:   2    -0.176621983899E+04   -0.92338E-02   -0.98175E-02  1568   0.309E-01    0.136E-01
RMM:   3    -0.176622001888E+04   -0.17989E-03   -0.51267E-03  1785   0.538E-02    0.177E-01
RMM:   4    -0.176621988572E+04    0.13316E-03   -0.25987E-04  1050   0.131E-02    0.947E-02
RMM:   5    -0.176621979085E+04    0.94872E-04   -0.20614E-04   951   0.139E-02
   90 T=  3921. E= -.17902079E+04 F= -.17662198E+04 E0= -.17662128E+04  EK= 0.12266E+03 SP= -.15E+03 SK= 0.20E-02
       N       E                     dE             d eps       ncg     rms          rms(c)
DAV:   1    -0.176771315477E+04   -0.14933E+01   -0.56742E-02  2896   0.310E+00    0.178E-01
RMM:   2    -0.176772155166E+04   -0.83969E-02   -0.92754E-02  1568   0.303E-01    0.126E-01
RMM:   3    -0.176772174431E+04   -0.19266E-03   -0.48050E-03  1774   0.526E-02    0.151E-01
RMM:   4    -0.176772163254E+04    0.11177E-03   -0.25579E-04  1048   0.129E-02    0.868E-02
RMM:   5    -0.176772154586E+04    0.86681E-04   -0.37852E-04  1101   0.177E-02
   91 T=  3966. E= -.17902185E+04 F= -.17677215E+04 E0= -.17677149E+04  EK= 0.12407E+03 SP= -.15E+03 SK= 0.77E-03
       N       E                     dE             d eps       ncg     rms          rms(c)
DAV:   1    -0.176907426922E+04   -0.13526E+01   -0.51675E-02  2936   0.312E+00    0.173E-01
RMM:   2    -0.176908210985E+04   -0.78406E-02   -0.85890E-02  1568   0.296E-01    0.110E-01
RMM:   3    -0.176908222287E+04   -0.11302E-03   -0.43953E-03  1753   0.504E-02    0.816E-02
RMM:   4    -0.176908220237E+04    0.20498E-04   -0.26034E-04  1052   0.132E-02
   92 T=  4008. E= -.17902284E+04 F= -.17690822E+04 E0= -.17690768E+04  EK= 0.12537E+03 SP= -.15E+03 SK= 0.56E-03
       N       E                     dE             d eps       ncg     rms          rms(c)
DAV:   1    -0.177028225221E+04   -0.12000E+01   -0.54712E-02  2968   0.313E+00    0.137E-01
RMM:   2    -0.177029047417E+04   -0.82220E-02   -0.85939E-02  1568   0.298E-01    0.152E-01
RMM:   3    -0.177029073394E+04   -0.25978E-03   -0.45131E-03  1767   0.502E-02    0.202E-01
RMM:   4    -0.177029045295E+04    0.28099E-03   -0.27490E-04  1019   0.147E-02    0.907E-02
RMM:   5    -0.177029035944E+04    0.93508E-04   -0.35392E-04  1081   0.171E-02
   93 T=  4044. E= -.17902371E+04 F= -.17702904E+04 E0= -.17702849E+04  EK= 0.12650E+03 SP= -.15E+03 SK= 0.10E-02
       N       E                     dE             d eps       ncg     rms          rms(c)
DAV:   1    -0.177133077832E+04   -0.10403E+01   -0.42233E-02  2952   0.314E+00    0.173E-01
RMM:   2    -0.177133858512E+04   -0.78068E-02   -0.85258E-02  1568   0.296E-01    0.154E-01
RMM:   3    -0.177133890162E+04   -0.31650E-03   -0.45305E-03  1752   0.505E-02    0.259E-01
RMM:   4    -0.177133851988E+04    0.38174E-03   -0.33116E-04  1048   0.162E-02    0.861E-02
RMM:   5    -0.177133846638E+04    0.53498E-04   -0.29522E-04  1025   0.165E-02
   94 T=  4074. E= -.17902447E+04 F= -.17713385E+04 E0= -.17713338E+04  EK= 0.12745E+03 SP= -.15E+03 SK= 0.25E-02
       N       E                     dE             d eps       ncg     rms          rms(c)
DAV:   1    -0.177221266628E+04   -0.87415E+00   -0.51108E-02  2912   0.315E+00    0.157E-01
RMM:   2    -0.177222066618E+04   -0.79999E-02   -0.86022E-02  1568   0.297E-01    0.993E-02
RMM:   3    -0.177222084174E+04   -0.17556E-03   -0.45527E-03  1769   0.503E-02    0.732E-02
RMM:   4    -0.177222079668E+04    0.45064E-04   -0.23666E-04  1033   0.132E-02
   95 T=  4097. E= -.17902507E+04 F= -.17722208E+04 E0= -.17722174E+04  EK= 0.12817E+03 SP= -.15E+03 SK= 0.59E-02
       N       E                     dE             d eps       ncg     rms          rms(c)
DAV:   1    -0.177292389014E+04   -0.70305E+00   -0.63921E-02  2888   0.316E+00    0.164E-01
RMM:   2    -0.177293242374E+04   -0.85336E-02   -0.92556E-02  1568   0.308E-01    0.116E-01
RMM:   3    -0.177293254508E+04   -0.12134E-03   -0.46267E-03  1774   0.513E-02    0.880E-02
RMM:   4    -0.177293247369E+04    0.71392E-04   -0.26684E-04  1043   0.145E-02
   96 T=  4112. E= -.17902554E+04 F= -.17729325E+04 E0= -.17729300E+04  EK= 0.12864E+03 SP= -.15E+03 SK= 0.12E-01
       N       E                     dE             d eps       ncg     rms          rms(c)
DAV:   1    -0.177346257217E+04   -0.53003E+00   -0.62949E-02  2912   0.316E+00    0.177E-01
RMM:   2    -0.177347101090E+04   -0.84387E-02   -0.92868E-02  1568   0.307E-01    0.114E-01
RMM:   3    -0.177347117730E+04   -0.16640E-03   -0.48855E-03  1782   0.521E-02    0.858E-02
RMM:   4    -0.177347112262E+04    0.54674E-04   -0.22349E-04  1020   0.128E-02
   97 T=  4119. E= -.17902582E+04 F= -.17734711E+04 E0= -.17734696E+04  EK= 0.12885E+03 SP= -.15E+03 SK= 0.21E-01
       N       E                     dE             d eps       ncg     rms          rms(c)
DAV:   1    -0.177383020522E+04   -0.35903E+00   -0.65875E-02  2952   0.316E+00    0.197E-01
RMM:   2    -0.177383934873E+04   -0.91435E-02   -0.10201E-01  1568   0.319E-01    0.127E-01
RMM:   3    -0.177383942567E+04   -0.76937E-04   -0.50629E-03  1776   0.537E-02    0.869E-02
RMM:   4    -0.177383933655E+04    0.89126E-04   -0.31398E-04  1089   0.156E-02
   98 T=  4117. E= -.17902591E+04 F= -.17738393E+04 E0= -.17738387E+04  EK= 0.12880E+03 SP= -.15E+03 SK= 0.33E-01
       N       E                     dE             d eps       ncg     rms          rms(c)
DAV:   1    -0.177403372612E+04   -0.19430E+00   -0.66585E-02  2968   0.315E+00    0.197E-01
RMM:   2    -0.177404288008E+04   -0.91540E-02   -0.10249E-01  1568   0.319E-01    0.121E-01
RMM:   3    -0.177404297355E+04   -0.93470E-04   -0.50793E-03  1775   0.538E-02    0.849E-02
RMM:   4    -0.177404285554E+04    0.11801E-03   -0.54558E-04  1271   0.207E-02    0.382E-02
RMM:   5    -0.177404284378E+04    0.11763E-04   -0.10211E-04   919   0.980E-03
   99 T=  4108. E= -.17902580E+04 F= -.17740428E+04 E0= -.17740426E+04  EK= 0.12849E+03 SP= -.14E+03 SK= 0.47E-01
       N       E                     dE             d eps       ncg     rms          rms(c)
DAV:   1    -0.177407902540E+04   -0.36170E-01   -0.72744E-02  2880   0.315E+00    0.187E-01
RMM:   2    -0.177408811226E+04   -0.90869E-02   -0.98428E-02  1568   0.313E-01    0.898E-02
RMM:   3    -0.177408836785E+04   -0.25559E-03   -0.52390E-03  1781   0.540E-02    0.567E-02
RMM:   4    -0.177408831361E+04    0.54246E-04   -0.38822E-04  1119   0.175E-02
  100 T=  4090. E= -.17902550E+04 F= -.17740883E+04 E0= -.17740882E+04  EK= 0.12795E+03 SP= -.14E+03 SK= 0.61E-01
       N       E                     dE             d eps       ncg     rms          rms(c)
DAV:   1    -0.177397502294E+04    0.11334E+00   -0.84261E-02  2864   0.314E+00    0.954E-02
RMM:   2    -0.177398422770E+04   -0.92048E-02   -0.93604E-02  1568   0.308E-01    0.854E-02
RMM:   3    -0.177398452656E+04   -0.29886E-03   -0.52370E-03  1796   0.530E-02    0.702E-02
RMM:   4    -0.177398446391E+04    0.62655E-04   -0.25832E-04  1043   0.141E-02
  101 T=  4066. E= -.17902512E+04 F= -.17739845E+04 E0= -.17739845E+04  EK= 0.12718E+03 SP= -.14E+03 SK= 0.74E-01
       N       E                     dE             d eps       ncg     rms          rms(c)
DAV:   1    -0.177373379023E+04    0.25074E+00   -0.88490E-02  2840   0.312E+00    0.103E-01
RMM:   2    -0.177374294421E+04   -0.91540E-02   -0.92932E-02  1568   0.308E-01    0.877E-02
RMM:   3    -0.177374323610E+04   -0.29189E-03   -0.51165E-03  1797   0.528E-02    0.690E-02
RMM:   4    -0.177374318090E+04    0.55193E-04   -0.29937E-04  1064   0.155E-02
  102 T=  4036. E= -.17902465E+04 F= -.17737432E+04 E0= -.17737432E+04  EK= 0.12624E+03 SP= -.14E+03 SK= 0.83E-01
       N       E                     dE             d eps       ncg     rms          rms(c)
DAV:   1    -0.177336993746E+04    0.37330E+00   -0.84175E-02  2888   0.310E+00    0.113E-01
RMM:   2    -0.177337925787E+04   -0.93204E-02   -0.95105E-02  1568   0.310E-01    0.798E-02
RMM:   3    -0.177337956174E+04   -0.30388E-03   -0.52710E-03  1799   0.531E-02    0.589E-02
RMM:   4    -0.177337951230E+04    0.49447E-04   -0.25101E-04  1040   0.141E-02
  103 T=  4001. E= -.17902403E+04 F= -.17733795E+04 E0= -.17733795E+04  EK= 0.12515E+03 SP= -.14E+03 SK= 0.86E-01
       N       E                     dE             d eps       ncg     rms          rms(c)
DAV:   1    -0.177290281755E+04    0.47674E+00   -0.95413E-02  2880   0.308E+00    0.106E-01
RMM:   2    -0.177291256020E+04   -0.97427E-02   -0.98670E-02  1568   0.315E-01    0.839E-02
RMM:   3    -0.177291286884E+04   -0.30865E-03   -0.54395E-03  1803   0.540E-02    0.660E-02
RMM:   4    -0.177291281232E+04    0.56528E-04   -0.25543E-04  1037   0.142E-02
  104 T=  3963. E= -.17902332E+04 F= -.17729128E+04 E0= -.17729128E+04  EK= 0.12396E+03 SP= -.14E+03 SK= 0.83E-01
       N       E                     dE             d eps       ncg     rms          rms(c)
DAV:   1    -0.177235571514E+04    0.55715E+00   -0.94217E-02  2856   0.307E+00    0.105E-01
RMM:   2    -0.177236558215E+04   -0.98670E-02   -0.10013E-01  1568   0.314E-01    0.783E-02
RMM:   3    -0.177236594132E+04   -0.35917E-03   -0.56768E-03  1793   0.544E-02    0.617E-02
RMM:   4    -0.177236589967E+04    0.41652E-04   -0.24209E-04  1044   0.135E-02
  105 T=  3924. E= -.17902258E+04 F= -.17723659E+04 E0= -.17723659E+04  EK= 0.12273E+03 SP= -.14E+03 SK= 0.73E-01
       N       E                     dE             d eps       ncg     rms          rms(c)
DAV:   1    -0.177175325637E+04    0.61268E+00   -0.10231E-01  2896   0.305E+00    0.119E-01
RMM:   2    -0.177176294569E+04   -0.96893E-02   -0.99146E-02  1568   0.318E-01    0.830E-02
RMM:   3    -0.177176325202E+04   -0.30632E-03   -0.54012E-03  1794   0.540E-02    0.634E-02
RMM:   4    -0.177176320045E+04    0.51569E-04   -0.26450E-04  1039   0.145E-02
  106 T=  3884. E= -.17902182E+04 F= -.17717632E+04 E0= -.17717632E+04  EK= 0.12151E+03 SP= -.14E+03 SK= 0.58E-01
       N       E                     dE             d eps       ncg     rms          rms(c)
DAV:   1    -0.177112263057E+04    0.64062E+00   -0.82879E-02  2896   0.303E+00    0.998E-02
RMM:   2    -0.177113162876E+04   -0.89982E-02   -0.91207E-02  1568   0.308E-01    0.791E-02
RMM:   3    -0.177113193987E+04   -0.31111E-03   -0.51337E-03  1795   0.522E-02    0.632E-02
RMM:   4    -0.177113189157E+04    0.48306E-04   -0.21808E-04  1005   0.131E-02
  107 T=  3847. E= -.17902113E+04 F= -.17711319E+04 E0= -.17711319E+04  EK= 0.12035E+03 SP= -.14E+03 SK= 0.39E-01
       N       E                     dE             d eps       ncg     rms          rms(c)
DAV:   1    -0.177048982560E+04    0.64211E+00   -0.89291E-02  2864   0.301E+00    0.111E-01
RMM:   2    -0.177049905256E+04   -0.92270E-02   -0.93873E-02  1568   0.311E-01    0.794E-02
RMM:   3    -0.177049936718E+04   -0.31462E-03   -0.51890E-03  1795   0.528E-02    0.613E-02
RMM:   4    -0.177049932186E+04    0.45324E-04   -0.24374E-04  1025   0.140E-02
  108 T=  3814. E= -.17902049E+04 F= -.17704993E+04 E0= -.17704993E+04  EK= 0.11931E+03 SP= -.14E+03 SK= 0.21E-01
       N       E                     dE             d eps       ncg     rms          rms(c)
DAV:   1    -0.176988419199E+04    0.61518E+00   -0.79991E-02  2944   0.300E+00    0.106E-01
RMM:   2    -0.176989335674E+04   -0.91647E-02   -0.93114E-02  1568   0.310E-01    0.781E-02
RMM:   3    -0.176989368085E+04   -0.32411E-03   -0.52544E-03  1788   0.526E-02    0.603E-02
RMM:   4    -0.176989363689E+04    0.43964E-04   -0.22789E-04  1008   0.134E-02
  109 T=  3786. E= -.17901996E+04 F= -.17698936E+04 E0= -.17698936E+04  EK= 0.11843E+03 SP= -.14E+03 SK= 0.70E-02
       N       E                     dE             d eps       ncg     rms          rms(c)
DAV:   1    -0.176933105460E+04    0.56263E+00   -0.92745E-02  2872   0.299E+00    0.104E-01
RMM:   2    -0.176934022674E+04   -0.91721E-02   -0.92965E-02  1568   0.313E-01    0.786E-02
RMM:   3    -0.176934052840E+04   -0.30167E-03   -0.50612E-03  1796   0.524E-02    0.618E-02
RMM:   4    -0.176934048492E+04    0.43485E-04   -0.22721E-04  1016   0.134E-02
  110 T=  3765. E= -.17901957E+04 F= -.17693405E+04 E0= -.17693405E+04  EK= 0.11777E+03 SP= -.14E+03 SK= 0.20E-03
       N       E                     dE             d eps       ncg     rms          rms(c)
DAV:   1    -0.176885289989E+04    0.48763E+00   -0.99844E-02  2856   0.299E+00    0.104E-01
RMM:   2    -0.176886222507E+04   -0.93252E-02   -0.94526E-02  1568   0.317E-01    0.807E-02
RMM:   3    -0.176886251624E+04   -0.29118E-03   -0.49986E-03  1789   0.525E-02    0.640E-02
RMM:   4    -0.176886247163E+04    0.44612E-04   -0.22434E-04  1014   0.133E-02
  111 T=  3751. E= -.17901936E+04 F= -.17688625E+04 E0= -.17688625E+04  EK= 0.11734E+03 SP= -.14E+03 SK= 0.37E-02
       N       E                     dE             d eps       ncg     rms          rms(c)
DAV:   1    -0.176846686394E+04    0.39565E+00   -0.84918E-02  2904   0.299E+00    0.102E-01
RMM:   2    -0.176847605120E+04   -0.91873E-02   -0.93109E-02  1568   0.314E-01    0.805E-02
RMM:   3    -0.176847636746E+04   -0.31625E-03   -0.51657E-03  1789   0.523E-02    0.645E-02
RMM:   4    -0.176847632191E+04    0.45546E-04   -0.22386E-04  1018   0.133E-02
  112 T=  3746. E= -.17901935E+04 F= -.17684763E+04 E0= -.17684763E+04  EK= 0.11719E+03 SP= -.14E+03 SK= 0.19E-01
       N       E                     dE             d eps       ncg     rms          rms(c)
DAV:   1    -0.176818372777E+04    0.29264E+00   -0.77253E-02  2840   0.299E+00    0.111E-01
RMM:   2    -0.176819284120E+04   -0.91134E-02   -0.92737E-02  1568   0.313E-01    0.771E-02
RMM:   3    -0.176819316057E+04   -0.31938E-03   -0.51431E-03  1787   0.521E-02    0.587E-02
RMM:   4    -0.176819311877E+04    0.41802E-04   -0.22473E-04  1009   0.134E-02
  113 T=  3750. E= -.17901958E+04 F= -.17681931E+04 E0= -.17681931E+04  EK= 0.11732E+03 SP= -.14E+03 SK= 0.47E-01
       N       E                     dE             d eps       ncg     rms          rms(c)
DAV:   1    -0.176800518700E+04    0.18797E+00   -0.78873E-02  2848   0.300E+00    0.108E-01
RMM:   2    -0.176801441718E+04   -0.92302E-02   -0.93670E-02  1568   0.317E-01    0.772E-02
RMM:   3    -0.176801473329E+04   -0.31611E-03   -0.50817E-03  1789   0.522E-02    0.596E-02
RMM:   4    -0.176801469175E+04    0.41536E-04   -0.20883E-04  1001   0.129E-02
  114 T=  3764. E= -.17902002E+04 F= -.17680147E+04 E0= -.17680147E+04  EK= 0.11773E+03 SP= -.14E+03 SK= 0.86E-01
       N       E                     dE             d eps       ncg     rms          rms(c)
DAV:   1    -0.176792442241E+04    0.90311E-01   -0.78794E-02  2848   0.302E+00    0.104E-01
RMM:   2    -0.176793372316E+04   -0.93008E-02   -0.94224E-02  1568   0.319E-01    0.803E-02
RMM:   3    -0.176793404023E+04   -0.31706E-03   -0.51361E-03  1788   0.524E-02    0.629E-02
RMM:   4    -0.176793399658E+04    0.43650E-04   -0.22380E-04  1013   0.133E-02
  115 T=  3786. E= -.17902070E+04 F= -.17679340E+04 E0= -.17679340E+04  EK= 0.11842E+03 SP= -.14E+03 SK= 0.13E+00
       N       E                     dE             d eps       ncg     rms          rms(c)
DAV:   1    -0.176792587162E+04    0.81686E-02   -0.91769E-02  2864   0.304E+00    0.112E-01
RMM:   2    -0.176793559226E+04   -0.97206E-02   -0.98788E-02  1568   0.329E-01    0.823E-02
RMM:   3    -0.176793590268E+04   -0.31043E-03   -0.52078E-03  1786   0.533E-02    0.635E-02
RMM:   4    -0.176793586022E+04    0.42461E-04   -0.24020E-04  1024   0.137E-02
  116 T=  3815. E= -.17902157E+04 F= -.17679359E+04 E0= -.17679359E+04  EK= 0.11935E+03 SP= -.14E+03 SK= 0.18E+00
       N       E                     dE             d eps       ncg     rms          rms(c)
DAV:   1    -0.176798808775E+04   -0.52185E-01   -0.85024E-02  2952   0.306E+00    0.113E-01
RMM:   2    -0.176799775039E+04   -0.96626E-02   -0.98262E-02  1568   0.333E-01    0.858E-02
RMM:   3    -0.176799804015E+04   -0.28976E-03   -0.50813E-03  1792   0.529E-02    0.662E-02
RMM:   4    -0.176799799068E+04    0.49476E-04   -0.25219E-04  1031   0.141E-02
  117 T=  3852. E= -.17902260E+04 F= -.17679980E+04 E0= -.17679980E+04  EK= 0.12048E+03 SP= -.14E+03 SK= 0.23E+00
       N       E                     dE             d eps       ncg     rms          rms(c)
DAV:   1    -0.176808251748E+04   -0.84477E-01   -0.74558E-02  2888   0.308E+00    0.110E-01
RMM:   2    -0.176809216485E+04   -0.96474E-02   -0.97884E-02  1568   0.333E-01    0.844E-02
RMM:   3    -0.176809247397E+04   -0.30913E-03   -0.51624E-03  1792   0.529E-02    0.653E-02
RMM:   4    -0.176809242584E+04    0.48134E-04   -0.23093E-04  1018   0.137E-02
  118 T=  3893. E= -.17902372E+04 F= -.17680924E+04 E0= -.17680924E+04  EK= 0.12177E+03 SP= -.14E+03 SK= 0.27E+00
       N       E                     dE             d eps       ncg     rms          rms(c)
DAV:   1    -0.176817962350E+04   -0.87150E-01   -0.78495E-02  2896   0.311E+00    0.118E-01
RMM:   2    -0.176818975576E+04   -0.10132E-01   -0.10309E-01  1568   0.341E-01    0.857E-02
RMM:   3    -0.176819007458E+04   -0.31882E-03   -0.53859E-03  1795   0.538E-02    0.641E-02
RMM:   4    -0.176819002443E+04    0.50156E-04   -0.25774E-04  1042   0.144E-02
  119 T=  3937. E= -.17902492E+04 F= -.17681900E+04 E0= -.17681900E+04  EK= 0.12315E+03 SP= -.15E+03 SK= 0.29E+00
       N       E                     dE             d eps       ncg     rms          rms(c)
DAV:   1    -0.176824946602E+04   -0.59391E-01   -0.98654E-02  2880   0.314E+00    0.121E-01
RMM:   2    -0.176826014094E+04   -0.10675E-01   -0.10850E-01  1568   0.353E-01    0.902E-02
RMM:   3    -0.176826043074E+04   -0.28980E-03   -0.53765E-03  1794   0.548E-02    0.685E-02
RMM:   4    -0.176826037711E+04    0.53634E-04   -0.26565E-04  1045   0.146E-02
  120 T=  3982. E= -.17902614E+04 F= -.17682604E+04 E0= -.17682604E+04  EK= 0.12456E+03 SP= -.15E+03 SK= 0.31E+00
       N       E                     dE             d eps       ncg     rms          rms(c)
DAV:   1    -0.176826252817E+04   -0.20974E-02   -0.91994E-02  2888   0.317E+00    0.113E-01
RMM:   2    -0.176827316463E+04   -0.10636E-01   -0.10774E-01  1568   0.356E-01    0.941E-02
RMM:   3    -0.176827345479E+04   -0.29016E-03   -0.53715E-03  1789   0.545E-02    0.735E-02
RMM:   4    -0.176827339559E+04    0.59196E-04   -0.27214E-04  1050   0.148E-02
  121 T=  4027. E= -.17902734E+04 F= -.17682734E+04 E0= -.17682734E+04  EK= 0.12595E+03 SP= -.15E+03 SK= 0.31E+00
       N       E                     dE             d eps       ncg     rms          rms(c)
DAV:   1    -0.176819043534E+04    0.83019E-01   -0.95289E-02  2896   0.319E+00    0.127E-01
RMM:   2    -0.176820180833E+04   -0.11373E-01   -0.11575E-01  1568   0.366E-01    0.920E-02
RMM:   3    -0.176820213032E+04   -0.32199E-03   -0.57488E-03  1804   0.565E-02    0.691E-02
RMM:   4    -0.176820207545E+04    0.54868E-04   -0.28578E-04  1056   0.152E-02
  122 T=  4068. E= -.17902845E+04 F= -.17682021E+04 E0= -.17682021E+04  EK= 0.12725E+03 SP= -.15E+03 SK= 0.29E+00
       N       E                     dE             d eps       ncg     rms          rms(c)
DAV:   1    -0.176801325556E+04    0.18887E+00   -0.11683E-01  2824   0.322E+00    0.128E-01
RMM:   2    -0.176802565563E+04   -0.12400E-01   -0.12585E-01  1568   0.381E-01    0.947E-02
RMM:   3    -0.176802597902E+04   -0.32340E-03   -0.61010E-03  1803   0.585E-02    0.715E-02
RMM:   4    -0.176802591929E+04    0.59739E-04   -0.29338E-04  1067   0.152E-02
  123 T=  4105. E= -.17902941E+04 F= -.17680259E+04 E0= -.17680259E+04  EK= 0.12841E+03 SP= -.15E+03 SK= 0.26E+00
       N       E                     dE             d eps       ncg     rms          rms(c)
DAV:   1    -0.176772055075E+04    0.30543E+00   -0.13123E-01  2808   0.324E+00    0.122E-01
RMM:   2    -0.176773316062E+04   -0.12610E-01   -0.12752E-01  1568   0.387E-01    0.986E-02
RMM:   3    -0.176773347403E+04   -0.31341E-03   -0.60998E-03  1797   0.588E-02    0.772E-02
RMM:   4    -0.176773341037E+04    0.63657E-04   -0.30093E-04  1075   0.153E-02
  124 T=  4136. E= -.17903023E+04 F= -.17677334E+04 E0= -.17677334E+04  EK= 0.12938E+03 SP= -.15E+03 SK= 0.23E+00
       N       E                     dE             d eps       ncg     rms          rms(c)
DAV:   1    -0.176730819296E+04    0.42528E+00   -0.14090E-01  2816   0.326E+00    0.128E-01
RMM:   2    -0.176732145662E+04   -0.13264E-01   -0.13436E-01  1568   0.397E-01    0.993E-02
RMM:   3    -0.176732179237E+04   -0.33575E-03   -0.63731E-03  1801   0.604E-02    0.773E-02
RMM:   4    -0.176732173160E+04    0.60765E-04   -0.31676E-04  1081   0.156E-02
  125 T=  4160. E= -.17903086E+04 F= -.17673217E+04 E0= -.17673217E+04  EK= 0.13013E+03 SP= -.15E+03 SK= 0.18E+00
       N       E                     dE             d eps       ncg     rms          rms(c)
DAV:   1    -0.176678203724E+04    0.53976E+00   -0.16863E-01  2832   0.327E+00    0.142E-01
RMM:   2    -0.176679646865E+04   -0.14431E-01   -0.14666E-01  1568   0.413E-01    0.984E-02
RMM:   3    -0.176679681372E+04   -0.34507E-03   -0.67584E-03  1803   0.629E-02    0.750E-02
RMM:   4    -0.176679675524E+04    0.58480E-04   -0.32714E-04  1090   0.158E-02
  126 T=  4177. E= -.17903129E+04 F= -.17667968E+04 E0= -.17667968E+04  EK= 0.13065E+03 SP= -.15E+03 SK= 0.14E+00
       N       E                     dE             d eps       ncg     rms          rms(c)
DAV:   1    -0.176615718307E+04    0.63963E+00   -0.12908E-01  2864   0.328E+00    0.120E-01
RMM:   2    -0.176617140756E+04   -0.14224E-01   -0.14359E-01  1569   0.404E-01    0.996E-02
RMM:   3    -0.176617180896E+04   -0.40140E-03   -0.71799E-03  1806   0.624E-02    0.787E-02
RMM:   4    -0.176617174430E+04    0.64658E-04   -0.30793E-04  1077   0.151E-02
  127 T=  4186. E= -.17903158E+04 F= -.17661717E+04 E0= -.17661717E+04  EK= 0.13093E+03 SP= -.16E+03 SK= 0.10E+00
       N       E                     dE             d eps       ncg     rms          rms(c)
DAV:   1    -0.176545188053E+04    0.71993E+00   -0.11709E-01  2832   0.328E+00    0.132E-01
RMM:   2    -0.176546528836E+04   -0.13408E-01   -0.13583E-01  1568   0.398E-01    0.979E-02
RMM:   3    -0.176546565807E+04   -0.36971E-03   -0.67313E-03  1810   0.608E-02    0.746E-02
RMM:   4    -0.176546559861E+04    0.59458E-04   -0.32226E-04  1077   0.157E-02
  128 T=  4187. E= -.17903167E+04 F= -.17654656E+04 E0= -.17654656E+04  EK= 0.13098E+03 SP= -.16E+03 SK= 0.69E-01
       N       E                     dE             d eps       ncg     rms          rms(c)
DAV:   1    -0.176468941377E+04    0.77624E+00   -0.12552E-01  2840   0.328E+00    0.139E-01
RMM:   2    -0.176470260954E+04   -0.13196E-01   -0.13436E-01  1568   0.401E-01    0.989E-02
RMM:   3    -0.176470292991E+04   -0.32037E-03   -0.63850E-03  1796   0.601E-02    0.745E-02
RMM:   4    -0.176470286746E+04    0.62450E-04   -0.30392E-04  1073   0.153E-02
  129 T=  4182. E= -.17903160E+04 F= -.17647029E+04 E0= -.17647029E+04  EK= 0.13082E+03 SP= -.16E+03 SK= 0.42E-01
       N       E                     dE             d eps       ncg     rms          rms(c)
DAV:   1    -0.176389789209E+04    0.80504E+00   -0.13876E-01  2848   0.328E+00    0.125E-01
RMM:   2    -0.176391155787E+04   -0.13666E-01   -0.13808E-01  1568   0.403E-01    0.104E-01
RMM:   3    -0.176391188631E+04   -0.32844E-03   -0.65646E-03  1798   0.611E-02    0.821E-02
RMM:   4    -0.176391181849E+04    0.67822E-04   -0.32197E-04  1089   0.156E-02
  130 T=  4172. E= -.17903145E+04 F= -.17639118E+04 E0= -.17639118E+04  EK= 0.13049E+03 SP= -.16E+03 SK= 0.23E-01
       N       E                     dE             d eps       ncg     rms          rms(c)
DAV:   1    -0.176310735221E+04    0.80453E+00   -0.12185E-01  2848   0.328E+00    0.126E-01
RMM:   2    -0.176312084054E+04   -0.13488E-01   -0.13649E-01  1568   0.396E-01    0.106E-01
RMM:   3    -0.176312121250E+04   -0.37196E-03   -0.68166E-03  1797   0.610E-02    0.828E-02
RMM:   4    -0.176312114594E+04    0.66562E-04   -0.33288E-04  1087   0.159E-02
  131 T=  4157. E= -.17903119E+04 F= -.17631211E+04 E0= -.17631211E+04  EK= 0.13003E+03 SP= -.16E+03 SK= 0.99E-02
       N       E                     dE             d eps       ncg     rms          rms(c)
DAV:   1    -0.176234949953E+04    0.77171E+00   -0.10458E-01  2872   0.327E+00    0.146E-01
RMM:   2    -0.176236240549E+04   -0.12906E-01   -0.13180E-01  1568   0.389E-01    0.974E-02
RMM:   3    -0.176236278962E+04   -0.38413E-03   -0.67672E-03  1788   0.605E-02    0.714E-02
RMM:   4    -0.176236273532E+04    0.54303E-04   -0.33982E-04  1099   0.160E-02
  132 T=  4139. E= -.17903087E+04 F= -.17623627E+04 E0= -.17623627E+04  EK= 0.12947E+03 SP= -.16E+03 SK= 0.29E-02
       N       E                     dE             d eps       ncg     rms          rms(c)
DAV:   1    -0.176165739794E+04    0.70539E+00   -0.10370E-01  2864   0.326E+00    0.128E-01
RMM:   2    -0.176166969493E+04   -0.12297E-01   -0.12478E-01  1568   0.383E-01    0.102E-01
RMM:   3    -0.176167000462E+04   -0.30968E-03   -0.61243E-03  1784   0.583E-02    0.797E-02
RMM:   4    -0.176166993738E+04    0.67236E-04   -0.30421E-04  1069   0.152E-02
  133 T=  4119. E= -.17903051E+04 F= -.17616699E+04 E0= -.17616699E+04  EK= 0.12886E+03 SP= -.16E+03 SK= 0.18E-03
       N       E                     dE             d eps       ncg     rms          rms(c)
DAV:   1    -0.176106410035E+04    0.60590E+00   -0.10398E-01  2872   0.325E+00    0.112E-01
RMM:   2    -0.176107605232E+04   -0.11952E-01   -0.12047E-01  1568   0.374E-01    0.104E-01
RMM:   3    -0.176107637813E+04   -0.32581E-03   -0.60380E-03  1784   0.575E-02    0.845E-02
RMM:   4    -0.176107631236E+04    0.65769E-04   -0.30168E-04  1073   0.153E-02
  134 T=  4100. E= -.17903016E+04 F= -.17610763E+04 E0= -.17610763E+04  EK= 0.12825E+03 SP= -.16E+03 SK= 0.43E-03
       N       E                     dE             d eps       ncg     rms          rms(c)
DAV:   1    -0.176059928015E+04    0.47710E+00   -0.10541E-01  2840   0.324E+00    0.142E-01
RMM:   2    -0.176061106227E+04   -0.11782E-01   -0.12075E-01  1568   0.372E-01    0.921E-02
RMM:   3    -0.176061140394E+04   -0.34167E-03   -0.60787E-03  1793   0.578E-02    0.674E-02
RMM:   4    -0.176061135467E+04    0.49272E-04   -0.29865E-04  1066   0.152E-02
  135 T=  4082. E= -.17902990E+04 F= -.17606114E+04 E0= -.17606114E+04  EK= 0.12770E+03 SP= -.16E+03 SK= 0.24E-02
       N       E                     dE             d eps       ncg     rms          rms(c)
DAV:   1    -0.176028219276E+04    0.32921E+00   -0.94990E-02  2824   0.324E+00    0.118E-01
RMM:   2    -0.176029374658E+04   -0.11554E-01   -0.11713E-01  1568   0.364E-01    0.951E-02
RMM:   3    -0.176029407399E+04   -0.32741E-03   -0.59428E-03  1783   0.569E-02    0.747E-02
RMM:   4    -0.176029401103E+04    0.62958E-04   -0.27143E-04  1047   0.144E-02
[...]
RMM:   4    -0.178930532552E+04    0.67648E-04   -0.24637E-04  1026   0.140E-02
  965 T=  3898. E= -.17917141E+04 F= -.17893053E+04 E0= -.17893053E+04  EK= 0.12192E+03 SP= -.12E+03 SK= 0.75E-02
       N       E                     dE             d eps       ncg     rms          rms(c)
DAV:   1    -0.178881535768E+04    0.49004E+00   -0.10068E-01  2808   0.315E+00    0.116E-01
RMM:   2    -0.178882533567E+04   -0.99780E-02   -0.10163E-01  1568   0.313E-01    0.929E-02
RMM:   3    -0.178882561271E+04   -0.27705E-03   -0.50057E-03  1762   0.534E-02    0.732E-02
RMM:   4    -0.178882555993E+04    0.52780E-04   -0.31224E-04  1078   0.160E-02
  966 T=  3890. E= -.17917129E+04 F= -.17888256E+04 E0= -.17888256E+04  EK= 0.12169E+03 SP= -.12E+03 SK= 0.14E-01
       N       E                     dE             d eps       ncg     rms          rms(c)
DAV:   1    -0.178829567291E+04    0.52994E+00   -0.11797E-01  2800   0.315E+00    0.155E-01
RMM:   2    -0.178830639750E+04   -0.10725E-01   -0.11194E-01  1568   0.330E-01    0.950E-02
RMM:   3    -0.178830661717E+04   -0.21967E-03   -0.51479E-03  1780   0.554E-02    0.662E-02
RMM:   4    -0.178830656170E+04    0.55477E-04   -0.30007E-04  1076   0.154E-02
  967 T=  3884. E= -.17917112E+04 F= -.17883066E+04 E0= -.17883066E+04  EK= 0.12150E+03 SP= -.12E+03 SK= 0.24E-01
       N       E                     dE             d eps       ncg     rms          rms(c)
DAV:   1    -0.178776519499E+04    0.54142E+00   -0.12758E-01  2792   0.315E+00    0.945E-02
RMM:   2    -0.178777640504E+04   -0.11210E-01   -0.11271E-01  1568   0.328E-01    0.946E-02
RMM:   3    -0.178777669477E+04   -0.28973E-03   -0.54381E-03  1781   0.561E-02    0.800E-02
RMM:   4    -0.178777663427E+04    0.60500E-04   -0.26391E-04  1055   0.141E-02
  968 T=  3881. E= -.17917106E+04 F= -.17877766E+04 E0= -.17877766E+04  EK= 0.12139E+03 SP= -.13E+03 SK= 0.36E-01
       N       E                     dE             d eps       ncg     rms          rms(c)
DAV:   1    -0.178724869946E+04    0.52800E+00   -0.13062E-01  2800   0.314E+00    0.121E-01
RMM:   2    -0.178725999862E+04   -0.11299E-01   -0.11519E-01  1568   0.329E-01    0.987E-02
RMM:   3    -0.178726028305E+04   -0.28444E-03   -0.55366E-03  1782   0.565E-02    0.780E-02
RMM:   4    -0.178726022658E+04    0.56473E-04   -0.32713E-04  1093   0.161E-02
  969 T=  3880. E= -.17917115E+04 F= -.17872602E+04 E0= -.17872602E+04  EK= 0.12138E+03 SP= -.13E+03 SK= 0.52E-01
       N       E                     dE             d eps       ncg     rms          rms(c)
DAV:   1    -0.178676269007E+04    0.49759E+00   -0.12539E-01  2808   0.314E+00    0.139E-01
RMM:   2    -0.178677388102E+04   -0.11191E-01   -0.11516E-01  1568   0.331E-01    0.838E-02
RMM:   3    -0.178677418480E+04   -0.30377E-03   -0.55588E-03  1781   0.567E-02    0.622E-02
RMM:   4    -0.178677414254E+04    0.42258E-04   -0.28387E-04  1068   0.149E-02
  970 T=  3884. E= -.17917131E+04 F= -.17867741E+04 E0= -.17867741E+04  EK= 0.12148E+03 SP= -.13E+03 SK= 0.70E-01
       N       E                     dE             d eps       ncg     rms          rms(c)
DAV:   1    -0.178631572734E+04    0.45846E+00   -0.12075E-01  2800   0.314E+00    0.113E-01
RMM:   2    -0.178632657993E+04   -0.10853E-01   -0.10995E-01  1568   0.326E-01    0.911E-02
RMM:   3    -0.178632683793E+04   -0.25800E-03   -0.51903E-03  1783   0.552E-02    0.722E-02
RMM:   4    -0.178632678395E+04    0.53981E-04   -0.27122E-04  1064   0.143E-02
  971 T=  3891. E= -.17917162E+04 F= -.17863268E+04 E0= -.17863268E+04  EK= 0.12172E+03 SP= -.13E+03 SK= 0.90E-01
       N       E                     dE             d eps       ncg     rms          rms(c)
DAV:   1    -0.178590587348E+04    0.42096E+00   -0.12976E-01  2808   0.314E+00    0.106E-01
RMM:   2    -0.178591669914E+04   -0.10826E-01   -0.10942E-01  1568   0.324E-01    0.894E-02
RMM:   3    -0.178591699355E+04   -0.29441E-03   -0.53105E-03  1771   0.552E-02    0.732E-02
RMM:   4    -0.178591694566E+04    0.47893E-04   -0.27949E-04  1065   0.148E-02
  972 T=  3902. E= -.17917207E+04 F= -.17859169E+04 E0= -.17859169E+04  EK= 0.12207E+03 SP= -.13E+03 SK= 0.11E+00
       N       E                     dE             d eps       ncg     rms          rms(c)
DAV:   1    -0.178552455379E+04    0.39244E+00   -0.13003E-01  2792   0.314E+00    0.140E-01
RMM:   2    -0.178553579820E+04   -0.11244E-01   -0.11577E-01  1568   0.332E-01    0.877E-02
RMM:   3    -0.178553609218E+04   -0.29398E-03   -0.55595E-03  1784   0.569E-02    0.652E-02
RMM:   4    -0.178553604846E+04    0.43715E-04   -0.31355E-04  1090   0.155E-02
  973 T=  3917. E= -.17917258E+04 F= -.17855360E+04 E0= -.17855360E+04  EK= 0.12253E+03 SP= -.13E+03 SK= 0.13E+00
       N       E                     dE             d eps       ncg     rms          rms(c)
DAV:   1    -0.178515992709E+04    0.37617E+00   -0.14722E-01  2808   0.314E+00    0.122E-01
RMM:   2    -0.178517178690E+04   -0.11860E-01   -0.12028E-01  1568   0.340E-01    0.910E-02
RMM:   3    -0.178517207187E+04   -0.28497E-03   -0.56806E-03  1786   0.578E-02    0.727E-02
RMM:   4    -0.178517202031E+04    0.51561E-04   -0.29625E-04  1087   0.148E-02
  974 T=  3934. E= -.17917314E+04 F= -.17851720E+04 E0= -.17851720E+04  EK= 0.12307E+03 SP= -.13E+03 SK= 0.15E+00
       N       E                     dE             d eps       ncg     rms          rms(c)
DAV:   1    -0.178480088237E+04    0.37119E+00   -0.15342E-01  2800   0.315E+00    0.115E-01
RMM:   2    -0.178481302893E+04   -0.12147E-01   -0.12298E-01  1568   0.344E-01    0.986E-02
RMM:   3    -0.178481332449E+04   -0.29556E-03   -0.58315E-03  1795   0.584E-02    0.803E-02
RMM:   4    -0.178481326602E+04    0.58474E-04   -0.31926E-04  1092   0.155E-02
  975 T=  3953. E= -.17917373E+04 F= -.17848133E+04 E0= -.17848133E+04  EK= 0.12367E+03 SP= -.13E+03 SK= 0.16E+00
       N       E                     dE             d eps       ncg     rms          rms(c)
DAV:   1    -0.178443882785E+04    0.37450E+00   -0.15979E-01  2792   0.315E+00    0.137E-01
RMM:   2    -0.178445130329E+04   -0.12475E-01   -0.12753E-01  1568   0.350E-01    0.933E-02
RMM:   3    -0.178445162235E+04   -0.31905E-03   -0.59643E-03  1793   0.595E-02    0.720E-02
RMM:   4    -0.178445157416E+04    0.48185E-04   -0.34360E-04  1106   0.162E-02
  976 T=  3974. E= -.17917427E+04 F= -.17844516E+04 E0= -.17844516E+04  EK= 0.12430E+03 SP= -.13E+03 SK= 0.17E+00
       N       E                     dE             d eps       ncg     rms          rms(c)
DAV:   1    -0.178407184726E+04    0.37978E+00   -0.15973E-01  2808   0.316E+00    0.140E-01
RMM:   2    -0.178408425338E+04   -0.12406E-01   -0.12688E-01  1568   0.351E-01    0.944E-02
RMM:   3    -0.178408453748E+04   -0.28410E-03   -0.58605E-03  1788   0.591E-02    0.718E-02
RMM:   4    -0.178408448442E+04    0.53063E-04   -0.32551E-04  1101   0.157E-02
  977 T=  3995. E= -.17917480E+04 F= -.17840845E+04 E0= -.17840845E+04  EK= 0.12496E+03 SP= -.13E+03 SK= 0.17E+00
       N       E                     dE             d eps       ncg     rms          rms(c)
DAV:   1    -0.178370215191E+04    0.38239E+00   -0.14401E-01  2800   0.317E+00    0.113E-01
RMM:   2    -0.178371421648E+04   -0.12065E-01   -0.12195E-01  1568   0.344E-01    0.965E-02
RMM:   3    -0.178371453721E+04   -0.32073E-03   -0.59255E-03  1784   0.584E-02    0.784E-02
RMM:   4    -0.178371447963E+04    0.57573E-04   -0.31475E-04  1091   0.154E-02
  978 T=  4016. E= -.17917527E+04 F= -.17837145E+04 E0= -.17837145E+04  EK= 0.12562E+03 SP= -.13E+03 SK= 0.17E+00
       N       E                     dE             d eps       ncg     rms          rms(c)
DAV:   1    -0.178333794302E+04    0.37659E+00   -0.13753E-01  2808   0.317E+00    0.128E-01
RMM:   2    -0.178335008960E+04   -0.12147E-01   -0.12381E-01  1568   0.345E-01    0.942E-02
RMM:   3    -0.178335041773E+04   -0.32813E-03   -0.59210E-03  1794   0.588E-02    0.728E-02
RMM:   4    -0.178335036843E+04    0.49296E-04   -0.33346E-04  1108   0.159E-02
  979 T=  4037. E= -.17917573E+04 F= -.17833504E+04 E0= -.17833504E+04  EK= 0.12629E+03 SP= -.13E+03 SK= 0.17E+00
       N       E                     dE             d eps       ncg     rms          rms(c)
DAV:   1    -0.178299146899E+04    0.35895E+00   -0.15648E-01  2808   0.318E+00    0.142E-01
RMM:   2    -0.178300387755E+04   -0.12409E-01   -0.12705E-01  1568   0.354E-01    0.925E-02
RMM:   3    -0.178300416943E+04   -0.29188E-03   -0.58446E-03  1785   0.593E-02    0.696E-02
RMM:   4    -0.178300412034E+04    0.49092E-04   -0.32872E-04  1105   0.157E-02
  980 T=  4058. E= -.17917618E+04 F= -.17830041E+04 E0= -.17830041E+04  EK= 0.12695E+03 SP= -.14E+03 SK= 0.15E+00
       N       E                     dE             d eps       ncg     rms          rms(c)
DAV:   1    -0.178267599522E+04    0.32817E+00   -0.16431E-01  2776   0.319E+00    0.114E-01
RMM:   2    -0.178268862183E+04   -0.12627E-01   -0.12761E-01  1568   0.353E-01    0.100E-01
RMM:   3    -0.178268891194E+04   -0.29011E-03   -0.58532E-03  1784   0.591E-02    0.812E-02
RMM:   4    -0.178268885235E+04    0.59588E-04   -0.31331E-04  1093   0.152E-02
  981 T=  4079. E= -.17917664E+04 F= -.17826889E+04 E0= -.17826889E+04  EK= 0.12759E+03 SP= -.14E+03 SK= 0.14E+00
       N       E                     dE             d eps       ncg     rms          rms(c)
DAV:   1    -0.178240581474E+04    0.28310E+00   -0.12030E-01  2808   0.319E+00    0.107E-01
RMM:   2    -0.178241695128E+04   -0.11137E-01   -0.11278E-01  1568   0.332E-01    0.931E-02
RMM:   3    -0.178241728945E+04   -0.33817E-03   -0.57133E-03  1789   0.567E-02    0.745E-02
RMM:   4    -0.178241723852E+04    0.50933E-04   -0.30230E-04  1083   0.152E-02
  982 T=  4099. E= -.17917712E+04 F= -.17824172E+04 E0= -.17824172E+04  EK= 0.12823E+03 SP= -.14E+03 SK= 0.12E+00
       N       E                     dE             d eps       ncg     rms          rms(c)
DAV:   1    -0.178218720821E+04    0.23008E+00   -0.12067E-01  2824   0.319E+00    0.145E-01
RMM:   2    -0.178219838652E+04   -0.11178E-01   -0.11526E-01  1568   0.337E-01    0.827E-02
RMM:   3    -0.178219870456E+04   -0.31804E-03   -0.56129E-03  1801   0.573E-02    0.587E-02
RMM:   4    -0.178219866544E+04    0.39118E-04   -0.28984E-04  1078   0.148E-02
  983 T=  4119. E= -.17917759E+04 F= -.17821987E+04 E0= -.17821987E+04  EK= 0.12884E+03 SP= -.14E+03 SK= 0.96E-01
       N       E                     dE             d eps       ncg     rms          rms(c)
DAV:   1    -0.178202578482E+04    0.17292E+00   -0.12888E-01  2816   0.320E+00    0.113E-01
RMM:   2    -0.178203684645E+04   -0.11062E-01   -0.11215E-01  1568   0.336E-01    0.914E-02
RMM:   3    -0.178203712622E+04   -0.27977E-03   -0.54545E-03  1777   0.563E-02    0.718E-02
RMM:   4    -0.178203707184E+04    0.54382E-04   -0.28197E-04  1080   0.145E-02
  984 T=  4137. E= -.17917811E+04 F= -.17820371E+04 E0= -.17820371E+04  EK= 0.12942E+03 SP= -.14E+03 SK= 0.73E-01
       N       E                     dE             d eps       ncg     rms          rms(c)
DAV:   1    -0.178191923595E+04    0.11789E+00   -0.12571E-01  2856   0.320E+00    0.102E-01
RMM:   2    -0.178193032649E+04   -0.11091E-01   -0.11190E-01  1568   0.332E-01    0.950E-02
RMM:   3    -0.178193065815E+04   -0.33166E-03   -0.56875E-03  1781   0.569E-02    0.777E-02
RMM:   4    -0.178193060310E+04    0.55055E-04   -0.30633E-04  1085   0.153E-02
  985 T=  4154. E= -.17917862E+04 F= -.17819306E+04 E0= -.17819306E+04  EK= 0.12995E+03 SP= -.14E+03 SK= 0.50E-01
       N       E                     dE             d eps       ncg     rms          rms(c)
DAV:   1    -0.178186335444E+04    0.67304E-01   -0.10551E-01  2832   0.320E+00    0.141E-01
RMM:   2    -0.178187442210E+04   -0.11068E-01   -0.11433E-01  1568   0.331E-01    0.840E-02
RMM:   3    -0.178187479465E+04   -0.37254E-03   -0.59816E-03  1799   0.575E-02    0.599E-02
RMM:   4    -0.178187475630E+04    0.38343E-04   -0.30884E-04  1083   0.154E-02
  986 T=  4169. E= -.17917905E+04 F= -.17818748E+04 E0= -.17818748E+04  EK= 0.13041E+03 SP= -.14E+03 SK= 0.30E-01
       N       E                     dE             d eps       ncg     rms          rms(c)
DAV:   1    -0.178185248334E+04    0.22311E-01   -0.11521E-01  2864   0.321E+00    0.126E-01
RMM:   2    -0.178186390521E+04   -0.11422E-01   -0.11652E-01  1568   0.337E-01    0.895E-02
RMM:   3    -0.178186422461E+04   -0.31940E-03   -0.58318E-03  1802   0.577E-02    0.682E-02
RMM:   4    -0.178186416925E+04    0.55361E-04   -0.28966E-04  1075   0.147E-02
  987 T=  4181. E= -.17917943E+04 F= -.17818642E+04 E0= -.17818642E+04  EK= 0.13077E+03 SP= -.14E+03 SK= 0.14E-01
       N       E                     dE             d eps       ncg     rms          rms(c)
DAV:   1    -0.178188232978E+04   -0.18105E-01   -0.13023E-01  2792   0.321E+00    0.992E-02
RMM:   2    -0.178189361131E+04   -0.11282E-01   -0.11360E-01  1568   0.336E-01    0.967E-02
RMM:   3    -0.178189391917E+04   -0.30785E-03   -0.55506E-03  1793   0.568E-02    0.805E-02
RMM:   4    -0.178189385843E+04    0.60734E-04   -0.29554E-04  1075   0.151E-02
  988 T=  4189. E= -.17917980E+04 F= -.17818939E+04 E0= -.17818939E+04  EK= 0.13104E+03 SP= -.14E+03 SK= 0.39E-02
       N       E                     dE             d eps       ncg     rms          rms(c)
DAV:   1    -0.178194865645E+04   -0.54737E-01   -0.13694E-01  2792   0.320E+00    0.141E-01
RMM:   2    -0.178196033990E+04   -0.11683E-01   -0.12023E-01  1568   0.342E-01    0.905E-02
RMM:   3    -0.178196067832E+04   -0.33842E-03   -0.58351E-03  1793   0.585E-02    0.673E-02
RMM:   4    -0.178196063710E+04    0.41223E-04   -0.33248E-04  1104   0.161E-02
  989 T=  4194. E= -.17918006E+04 F= -.17819606E+04 E0= -.17819606E+04  EK= 0.13119E+03 SP= -.14E+03 SK= 0.84E-05
       N       E                     dE             d eps       ncg     rms          rms(c)
DAV:   1    -0.178205132283E+04   -0.90645E-01   -0.13136E-01  2832   0.321E+00    0.137E-01
RMM:   2    -0.178206330552E+04   -0.11983E-01   -0.12290E-01  1568   0.344E-01    0.888E-02
RMM:   3    -0.178206363754E+04   -0.33202E-03   -0.60270E-03  1795   0.591E-02    0.665E-02
RMM:   4    -0.178206358704E+04    0.50501E-04   -0.30727E-04  1083   0.152E-02
  990 T=  4195. E= -.17918021E+04 F= -.17820636E+04 E0= -.17820636E+04  EK= 0.13122E+03 SP= -.14E+03 SK= 0.33E-02
       N       E                     dE             d eps       ncg     rms          rms(c)
DAV:   1    -0.178219051644E+04   -0.12688E+00   -0.11796E-01  2816   0.321E+00    0.950E-02
RMM:   2    -0.178220185154E+04   -0.11335E-01   -0.11394E-01  1568   0.332E-01    0.939E-02
RMM:   3    -0.178220221172E+04   -0.36017E-03   -0.59316E-03  1793   0.577E-02    0.792E-02
RMM:   4    -0.178220215225E+04    0.59466E-04   -0.28186E-04  1063   0.147E-02
  991 T=  4192. E= -.17918036E+04 F= -.17822022E+04 E0= -.17822022E+04  EK= 0.13113E+03 SP= -.14E+03 SK= 0.14E-01
       N       E                     dE             d eps       ncg     rms          rms(c)
DAV:   1    -0.178236370948E+04   -0.16150E+00   -0.12033E-01  2800   0.319E+00    0.134E-01
RMM:   2    -0.178237466010E+04   -0.10951E-01   -0.11232E-01  1568   0.330E-01    0.843E-02
RMM:   3    -0.178237502515E+04   -0.36505E-03   -0.57758E-03  1805   0.574E-02    0.630E-02
RMM:   4    -0.178237498817E+04    0.36984E-04   -0.29970E-04  1072   0.154E-02
  992 T=  4185. E= -.17918042E+04 F= -.17823750E+04 E0= -.17823750E+04  EK= 0.13092E+03 SP= -.14E+03 SK= 0.31E-01
       N       E                     dE             d eps       ncg     rms          rms(c)
DAV:   1    -0.178256802137E+04   -0.19300E+00   -0.11441E-01  2800   0.319E+00    0.138E-01
RMM:   2    -0.178257926607E+04   -0.11245E-01   -0.11577E-01  1568   0.333E-01    0.806E-02
RMM:   3    -0.178257962312E+04   -0.35704E-03   -0.59211E-03  1793   0.579E-02    0.597E-02
RMM:   4    -0.178257957940E+04    0.43713E-04   -0.27371E-04  1059   0.144E-02
  993 T=  4175. E= -.17918043E+04 F= -.17825796E+04 E0= -.17825796E+04  EK= 0.13059E+03 SP= -.14E+03 SK= 0.54E-01
       N       E                     dE             d eps       ncg     rms          rms(c)
DAV:   1    -0.178279749945E+04   -0.21788E+00   -0.11071E-01  2816   0.319E+00    0.884E-02
RMM:   2    -0.178280867666E+04   -0.11177E-01   -0.11217E-01  1568   0.326E-01    0.905E-02
RMM:   3    -0.178280905712E+04   -0.38046E-03   -0.59659E-03  1800   0.574E-02    0.775E-02
RMM:   4    -0.178280900083E+04    0.56291E-04   -0.25682E-04  1052   0.139E-02
  994 T=  4161. E= -.17918046E+04 F= -.17828090E+04 E0= -.17828090E+04  EK= 0.13015E+03 SP= -.14E+03 SK= 0.81E-01
       N       E                     dE             d eps       ncg     rms          rms(c)
DAV:   1    -0.178304129486E+04   -0.23224E+00   -0.12068E-01  2784   0.317E+00    0.122E-01
RMM:   2    -0.178305212810E+04   -0.10833E-01   -0.11039E-01  1568   0.327E-01    0.864E-02
RMM:   3    -0.178305247846E+04   -0.35037E-03   -0.55974E-03  1804   0.566E-02    0.668E-02
RMM:   4    -0.178305243899E+04    0.39471E-04   -0.30036E-04  1079   0.154E-02
  995 T=  4143. E= -.17918044E+04 F= -.17830524E+04 E0= -.17830524E+04  EK= 0.12960E+03 SP= -.14E+03 SK= 0.11E+00
       N       E                     dE             d eps       ncg     rms          rms(c)
DAV:   1    -0.178328494547E+04   -0.23247E+00   -0.12393E-01  2784   0.317E+00    0.145E-01
RMM:   2    -0.178329600797E+04   -0.11062E-01   -0.11443E-01  1568   0.332E-01    0.807E-02
RMM:   3    -0.178329632948E+04   -0.32151E-03   -0.55796E-03  1798   0.569E-02    0.581E-02
RMM:   4    -0.178329628943E+04    0.40044E-04   -0.27521E-04  1064   0.145E-02
  996 T=  4122. E= -.17918032E+04 F= -.17832963E+04 E0= -.17832963E+04  EK= 0.12893E+03 SP= -.14E+03 SK= 0.14E+00
       N       E                     dE             d eps       ncg     rms          rms(c)
DAV:   1    -0.178351437528E+04   -0.21805E+00   -0.10038E-01  2776   0.316E+00    0.917E-02
RMM:   2    -0.178352486736E+04   -0.10492E-01   -0.10546E-01  1568   0.320E-01    0.886E-02
RMM:   3    -0.178352519332E+04   -0.32596E-03   -0.54083E-03  1796   0.551E-02    0.737E-02
RMM:   4    -0.178352514274E+04    0.50587E-04   -0.23911E-04  1043   0.134E-02
  997 T=  4097. E= -.17918018E+04 F= -.17835251E+04 E0= -.17835250E+04  EK= 0.12816E+03 SP= -.14E+03 SK= 0.17E+00
       N       E                     dE             d eps       ncg     rms          rms(c)
DAV:   1    -0.178371420126E+04   -0.18901E+00   -0.88181E-02  2800   0.314E+00    0.107E-01
RMM:   2    -0.178372397021E+04   -0.97690E-02   -0.99071E-02  1568   0.311E-01    0.907E-02
RMM:   3    -0.178372429837E+04   -0.32815E-03   -0.52733E-03  1794   0.542E-02    0.705E-02
RMM:   4    -0.178372427274E+04    0.25626E-04   -0.22426E-04  1023   0.123E-02
  998 T=  4069. E= -.17917999E+04 F= -.17837243E+04 E0= -.17837238E+04  EK= 0.12730E+03 SP= -.14E+03 SK= 0.19E+00
       N       E                     dE             d eps       ncg     rms          rms(c)
DAV:   1    -0.178387102277E+04   -0.14672E+00   -0.95819E-02  2840   0.312E+00    0.125E-01
RMM:   2    -0.178388113569E+04   -0.10113E-01   -0.10323E-01  1569   0.318E-01    0.105E-01
RMM:   3    -0.178388142062E+04   -0.28494E-03   -0.53327E-03  1794   0.552E-02    0.790E-02
RMM:   4    -0.178388137439E+04    0.46231E-04   -0.24982E-04  1039   0.126E-02
  999 T=  4039. E= -.17917968E+04 F= -.17838814E+04 E0= -.17838804E+04  EK= 0.12634E+03 SP= -.13E+03 SK= 0.20E+00
       N       E                     dE             d eps       ncg     rms          rms(c)
DAV:   1    -0.178397744919E+04   -0.96029E-01   -0.96598E-02  2832   0.311E+00    0.101E-01
RMM:   2    -0.178398762812E+04   -0.10179E-01   -0.10286E-01  1569   0.317E-01    0.922E-02
RMM:   3    -0.178398793000E+04   -0.30188E-03   -0.52612E-03  1798   0.547E-02    0.762E-02
RMM:   4    -0.178398789787E+04    0.32125E-04   -0.23733E-04  1037   0.127E-02
 1000 T=  4006. E= -.17917937E+04 F= -.17839879E+04 E0= -.17839867E+04  EK= 0.12531E+03 SP= -.13E+03 SK= 0.21E+00
