 243 243   0   0
  0.1311381E+02  0.1499190E-08  0.1499190E-08  0.1637160E-08  0.5000000E-15
  1.000000000000000E-004
  CAR 
 (Si O2)81  (P1) ~ Ciellie_MCM41 (MD     
     12.75731762    -20.32828548  301      1.08085686      1.00000000
    -20.328  0.0000E+00  0.0000E+00
    -20.218  0.0000E+00  0.0000E+00
    -20.108  0.0000E+00  0.0000E+00
    -19.997  0.0000E+00  0.0000E+00
    -19.887  0.0000E+00  0.0000E+00
    -19.777  0.0000E+00  0.0000E+00
    -19.667  0.0000E+00  0.0000E+00
    -19.556  0.0000E+00  0.0000E+00
    -19.446  0.0000E+00  0.0000E+00
    -19.336  0.0000E+00  0.0000E+00
    -19.225  0.0000E+00  0.0000E+00
    -19.115  0.2517E-15  0.2776E-16
    -19.005  0.3763E-06  0.4150E-07
    -18.895  0.5466E-01  0.6028E-02
    -18.784  0.5598E+01  0.6235E+00
    -18.674  0.3507E+02  0.4492E+01
    -18.564  0.4939E+02  0.9939E+01
    -18.453  0.8249E+02  0.1904E+02
    -18.343  0.1507E+03  0.3565E+02
    -18.233  0.1690E+03  0.5429E+02
    -18.123  0.2159E+02  0.5667E+02
    -18.012  0.4824E+02  0.6199E+02
    -17.902  0.1112E+03  0.7426E+02
    -17.792  0.1749E+03  0.9355E+02
    -17.681  0.7264E+02  0.1016E+03
    -17.571  0.4166E+02  0.1062E+03
    -17.461  0.1011E+02  0.1073E+03
    -17.351  0.6039E+02  0.1139E+03
    -17.240  0.2170E+03  0.1379E+03
    -17.130  0.7458E+02  0.1461E+03
    -17.020  0.7044E+02  0.1539E+03
    -16.909  0.2597E+02  0.1567E+03
    -16.799  0.2732E+02  0.1597E+03
    -16.689  0.1760E+03  0.1791E+03
    -16.579  0.1249E+04  0.3169E+03
    -16.468  0.6443E+02  0.3240E+03
    -16.358  0.2624E-02  0.3240E+03
    -16.248  0.2809E-10  0.3240E+03
    -16.137  0.0000E+00  0.3240E+03
    -16.027  0.0000E+00  0.3240E+03
    -15.917  0.0000E+00  0.3240E+03
    -15.807  0.0000E+00  0.3240E+03
    -15.696  0.0000E+00  0.3240E+03
    -15.586  0.0000E+00  0.3240E+03
    -15.476  0.0000E+00  0.3240E+03
    -15.365  0.0000E+00  0.3240E+03
    -15.255  0.0000E+00  0.3240E+03
    -15.145  0.0000E+00  0.3240E+03
    -15.035  0.0000E+00  0.3240E+03
    -14.924  0.0000E+00  0.3240E+03
    -14.814  0.0000E+00  0.3240E+03
    -14.704  0.0000E+00  0.3240E+03
    -14.593  0.0000E+00  0.3240E+03
    -14.483  0.0000E+00  0.3240E+03
    -14.373  0.0000E+00  0.3240E+03
    -14.263  0.0000E+00  0.3240E+03
    -14.152  0.0000E+00  0.3240E+03
    -14.042  0.0000E+00  0.3240E+03
    -13.932  0.0000E+00  0.3240E+03
    -13.821  0.0000E+00  0.3240E+03
    -13.711  0.0000E+00  0.3240E+03
    -13.601  0.0000E+00  0.3240E+03
    -13.491  0.0000E+00  0.3240E+03
    -13.380  0.0000E+00  0.3240E+03
    -13.270  0.0000E+00  0.3240E+03
    -13.160  0.0000E+00  0.3240E+03
    -13.049  0.0000E+00  0.3240E+03
    -12.939  0.0000E+00  0.3240E+03
    -12.829  0.0000E+00  0.3240E+03
    -12.719  0.0000E+00  0.3240E+03
    -12.608  0.0000E+00  0.3240E+03
    -12.498  0.0000E+00  0.3240E+03
    -12.388  0.0000E+00  0.3240E+03
    -12.277  0.0000E+00  0.3240E+03
    -12.167  0.0000E+00  0.3240E+03
    -12.057  0.0000E+00  0.3240E+03
    -11.947  0.0000E+00  0.3240E+03
    -11.836  0.0000E+00  0.3240E+03
    -11.726  0.0000E+00  0.3240E+03
    -11.616  0.0000E+00  0.3240E+03
    -11.505  0.0000E+00  0.3240E+03
    -11.395  0.0000E+00  0.3240E+03
    -11.285  0.0000E+00  0.3240E+03
    -11.175  0.0000E+00  0.3240E+03
    -11.064  0.0000E+00  0.3240E+03
    -10.954  0.0000E+00  0.3240E+03
    -10.844  0.0000E+00  0.3240E+03
    -10.733  0.0000E+00  0.3240E+03
    -10.623  0.0000E+00  0.3240E+03
    -10.513  0.0000E+00  0.3240E+03
    -10.403  0.0000E+00  0.3240E+03
    -10.292  0.0000E+00  0.3240E+03
    -10.182  0.0000E+00  0.3240E+03
    -10.072  0.0000E+00  0.3240E+03
     -9.961  0.0000E+00  0.3240E+03
     -9.851  0.0000E+00  0.3240E+03
     -9.741  0.0000E+00  0.3240E+03
     -9.631  0.0000E+00  0.3240E+03
     -9.520  0.0000E+00  0.3240E+03
     -9.410  0.0000E+00  0.3240E+03
     -9.300  0.1984E-12  0.3240E+03
     -9.189  0.2453E-04  0.3240E+03
     -9.079  0.2940E+00  0.3240E+03
     -8.969  0.1963E+01  0.3242E+03
     -8.859  0.4760E+01  0.3248E+03
     -8.748  0.1363E+02  0.3263E+03
     -8.638  0.2387E+02  0.3289E+03
     -8.528  0.3194E+01  0.3293E+03
     -8.417  0.9492E+01  0.3303E+03
     -8.307  0.4534E+02  0.3353E+03
     -8.197  0.4261E+02  0.3400E+03
     -8.087  0.4718E+02  0.3452E+03
     -7.976  0.1018E+03  0.3564E+03
     -7.866  0.1078E+03  0.3683E+03
     -7.756  0.7340E+02  0.3764E+03
     -7.645  0.1500E+02  0.3781E+03
     -7.535  0.1060E+02  0.3792E+03
     -7.425  0.3994E-01  0.3793E+03
     -7.315  0.2423E+01  0.3795E+03
     -7.204  0.2227E+02  0.3820E+03
     -7.094  0.2509E+02  0.3847E+03
     -6.984  0.6005E+02  0.3914E+03
     -6.873  0.3026E+02  0.3947E+03
     -6.763  0.1201E+03  0.4079E+03
     -6.653  0.9017E+02  0.4179E+03
     -6.543  0.3386E+02  0.4216E+03
     -6.432  0.2509E+02  0.4244E+03
     -6.322  0.3237E+02  0.4280E+03
     -6.212  0.1620E+02  0.4297E+03
     -6.101  0.3283E+02  0.4334E+03
     -5.991  0.3517E+02  0.4372E+03
     -5.881  0.8899E+02  0.4471E+03
     -5.771  0.2883E+02  0.4502E+03
     -5.660  0.9106E+02  0.4603E+03
     -5.550  0.3277E+02  0.4639E+03
     -5.440  0.4774E+02  0.4692E+03
     -5.329  0.5532E+02  0.4753E+03
     -5.219  0.1807E+02  0.4773E+03
     -5.109  0.5156E+02  0.4829E+03
     -4.999  0.1667E+03  0.5013E+03
     -4.888  0.2134E+03  0.5249E+03
     -4.778  0.2109E+03  0.5481E+03
     -4.668  0.8262E+02  0.5572E+03
     -4.557  0.2014E+03  0.5795E+03
     -4.447  0.8323E+02  0.5886E+03
     -4.337  0.1011E+03  0.5998E+03
     -4.227  0.1629E+03  0.6177E+03
     -4.116  0.1057E+03  0.6294E+03
     -4.006  0.1041E+03  0.6409E+03
     -3.896  0.5636E+02  0.6471E+03
     -3.785  0.8074E+01  0.6480E+03
     -3.675  0.1185E+00  0.6480E+03
     -3.565  0.8162E-06  0.6480E+03
     -3.455  0.0000E+00  0.6480E+03
     -3.344  0.0000E+00  0.6480E+03
     -3.234  0.0000E+00  0.6480E+03
     -3.124  0.0000E+00  0.6480E+03
     -3.013  0.0000E+00  0.6480E+03
     -2.903  0.0000E+00  0.6480E+03
     -2.793  0.1685E-09  0.6480E+03
     -2.683  0.1990E-02  0.6480E+03
     -2.572  0.1013E+02  0.6491E+03
     -2.462  0.2153E+03  0.6729E+03
     -2.352  0.2842E+03  0.7042E+03
     -2.241  0.2065E+03  0.7270E+03
     -2.131  0.2124E+03  0.7504E+03
     -2.021  0.9752E+02  0.7612E+03
     -1.911  0.1915E+03  0.7823E+03
     -1.800  0.2160E+03  0.8061E+03
     -1.690  0.1337E+03  0.8209E+03
     -1.580  0.2064E+03  0.8436E+03
     -1.469  0.2670E+03  0.8731E+03
     -1.359  0.3252E+03  0.9089E+03
     -1.249  0.1378E+03  0.9241E+03
     -1.139  0.1112E+03  0.9364E+03
     -1.028  0.1958E+03  0.9580E+03
     -0.918  0.3310E+03  0.9945E+03
     -0.808  0.1959E+03  0.1016E+04
     -0.697  0.1212E+03  0.1029E+04
     -0.587  0.2206E+03  0.1054E+04
     -0.477  0.1280E+03  0.1068E+04
     -0.367  0.1624E+03  0.1086E+04
     -0.256  0.1419E+03  0.1101E+04
     -0.146  0.1931E+03  0.1123E+04
     -0.036  0.1372E+03  0.1138E+04
      0.075  0.2539E+03  0.1166E+04
      0.185  0.1429E+03  0.1182E+04
      0.295  0.1545E+03  0.1199E+04
      0.405  0.2195E+03  0.1223E+04
      0.516  0.1844E+03  0.1243E+04
      0.626  0.1390E+03  0.1259E+04
      0.736  0.2238E+03  0.1283E+04
      0.847  0.1130E+03  0.1296E+04
      0.957  0.2793E+01  0.1296E+04
      1.067  0.2007E-03  0.1296E+04
      1.177  0.2078E-11  0.1296E+04
      1.288  0.0000E+00  0.1296E+04
      1.398  0.0000E+00  0.1296E+04
      1.508  0.0000E+00  0.1296E+04
      1.618  0.0000E+00  0.1296E+04
      1.729  0.0000E+00  0.1296E+04
      1.839  0.0000E+00  0.1296E+04
      1.949  0.0000E+00  0.1296E+04
      2.060  0.0000E+00  0.1296E+04
      2.170  0.0000E+00  0.1296E+04
      2.280  0.0000E+00  0.1296E+04
      2.390  0.0000E+00  0.1296E+04
      2.501  0.0000E+00  0.1296E+04
      2.611  0.0000E+00  0.1296E+04
      2.721  0.0000E+00  0.1296E+04
      2.832  0.0000E+00  0.1296E+04
      2.942  0.0000E+00  0.1296E+04
      3.052  0.0000E+00  0.1296E+04
      3.162  0.0000E+00  0.1296E+04
      3.273  0.0000E+00  0.1296E+04
      3.383  0.0000E+00  0.1296E+04
      3.493  0.0000E+00  0.1296E+04
      3.604  0.0000E+00  0.1296E+04
      3.714  0.0000E+00  0.1296E+04
      3.824  0.0000E+00  0.1296E+04
      3.934  0.0000E+00  0.1296E+04
      4.045  0.0000E+00  0.1296E+04
      4.155  0.0000E+00  0.1296E+04
      4.265  0.0000E+00  0.1296E+04
      4.376  0.0000E+00  0.1296E+04
      4.486  0.0000E+00  0.1296E+04
      4.596  0.0000E+00  0.1296E+04
      4.706  0.0000E+00  0.1296E+04
      4.817  0.0000E+00  0.1296E+04
      4.927  0.0000E+00  0.1296E+04
      5.037  0.0000E+00  0.1296E+04
      5.148  0.0000E+00  0.1296E+04
      5.258  0.0000E+00  0.1296E+04
      5.368  0.0000E+00  0.1296E+04
      5.478  0.0000E+00  0.1296E+04
      5.589  0.0000E+00  0.1296E+04
      5.699  0.0000E+00  0.1296E+04
      5.809  0.0000E+00  0.1296E+04
      5.920  0.0000E+00  0.1296E+04
      6.030  0.0000E+00  0.1296E+04
      6.140  0.0000E+00  0.1296E+04
      6.250  0.0000E+00  0.1296E+04
      6.361  0.0000E+00  0.1296E+04
      6.471  0.3045E-13  0.1296E+04
      6.581  0.7947E-05  0.1296E+04
      6.692  0.1920E+00  0.1296E+04
      6.802  0.1983E+01  0.1296E+04
      6.912  0.1231E+00  0.1296E+04
      7.022  0.3362E+01  0.1297E+04
      7.133  0.8388E+01  0.1298E+04
      7.243  0.6357E+01  0.1298E+04
      7.353  0.1162E+02  0.1300E+04
      7.464  0.1554E+02  0.1301E+04
      7.574  0.4811E-01  0.1301E+04
      7.684  0.2088E+01  0.1301E+04
      7.794  0.9034E+01  0.1302E+04
      7.905  0.7552E+01  0.1303E+04
      8.015  0.4356E+02  0.1308E+04
      8.125  0.2339E+02  0.1311E+04
      8.236  0.1240E+02  0.1312E+04
      8.346  0.1527E+02  0.1314E+04
      8.456  0.8711E+00  0.1314E+04
      8.566  0.2430E+02  0.1317E+04
      8.677  0.7416E+01  0.1317E+04
      8.787  0.4761E+02  0.1323E+04
      8.897  0.6159E+02  0.1329E+04
      9.008  0.4503E+02  0.1334E+04
      9.118  0.1374E+01  0.1335E+04
      9.228  0.3038E+01  0.1335E+04
      9.338  0.5589E+02  0.1341E+04
      9.449  0.4813E+02  0.1346E+04
      9.559  0.2711E+02  0.1349E+04
      9.669  0.3731E+02  0.1353E+04
      9.780  0.4777E+02  0.1359E+04
      9.890  0.9551E+02  0.1369E+04
     10.000  0.1662E+03  0.1388E+04
     10.110  0.1505E+03  0.1404E+04
     10.221  0.1162E+03  0.1417E+04
     10.331  0.1198E+03  0.1430E+04
     10.441  0.1802E+03  0.1450E+04
     10.552  0.1906E+03  0.1471E+04
     10.662  0.2397E+03  0.1497E+04
     10.772  0.1932E+03  0.1519E+04
     10.882  0.1557E+03  0.1536E+04
     10.993  0.6387E+02  0.1543E+04
     11.103  0.7737E+02  0.1552E+04
     11.213  0.1216E+03  0.1565E+04
     11.324  0.2727E+02  0.1568E+04
     11.434  0.3640E+00  0.1568E+04
     11.544  0.1981E-05  0.1568E+04
     11.654  0.0000E+00  0.1568E+04
     11.765  0.0000E+00  0.1568E+04
     11.875  0.0000E+00  0.1568E+04
     11.985  0.0000E+00  0.1568E+04
     12.096  0.0000E+00  0.1568E+04
     12.206  0.0000E+00  0.1568E+04
     12.316  0.0000E+00  0.1568E+04
     12.426  0.0000E+00  0.1568E+04
     12.537  0.0000E+00  0.1568E+04
     12.647  0.0000E+00  0.1568E+04
     12.757  0.0000E+00  0.1568E+04
