  243  243    1    1
  0.1311381E+02  0.1499190E-08  0.1499190E-08  0.1637160E-08  0.5000000E-15
  1.000000000000000E-004
  CAR 
 (Si O2)81  (P1) ~ Ciellie_MCM41 (MD     
   1296      4    784
 
  0.0000000E+00  0.0000000E+00  0.0000000E+00  0.1250000E+00
    1      -18.824394
    2      -18.615568
    3      -18.615566
    4      -18.536781
    5      -18.536774
    6      -18.536724
    7      -18.536605
    8      -18.536554
    9      -18.536547
   10      -18.407046
   11      -18.407046
   12      -18.407002
   13      -18.407000
   14      -18.406967
   15      -18.406965
   16      -18.406876
   17      -18.406874
   18      -18.406841
   19      -18.406839
   20      -18.406793
   21      -18.406792
   22      -18.279441
   23      -18.279439
   24      -18.279438
   25      -18.279436
   26      -18.116301
   27      -18.116299
   28      -18.116266
   29      -18.116264
   30      -18.044983
   31      -18.044983
   32      -17.949276
   33      -17.949275
   34      -17.949224
   35      -17.949224
   36      -17.949153
   37      -17.949151
   38      -17.949141
   39      -17.949140
   40      -17.949071
   41      -17.949071
   42      -17.949018
   43      -17.949017
   44      -17.799698
   45      -17.799698
   46      -17.799696
   47      -17.799696
   48      -17.672557
   49      -17.672553
   50      -17.672540
   51      -17.672282
   52      -17.672279
   53      -17.672268
   54      -17.457487
   55      -17.457486
   56      -17.457485
   57      -17.457484
   58      -17.313494
   59      -17.313490
   60      -17.288593
   61      -17.288548
   62      -17.275936
   63      -17.275824
   64      -17.275800
   65      -17.275708
   66      -17.275689
   67      -17.275580
   68      -17.136279
   69      -17.136278
   70      -17.136277
   71      -17.136277
   72      -17.136220
   73      -17.136219
   74      -17.136216
   75      -17.136214
   76      -17.136159
   77      -17.136159
   78      -17.136158
   79      -17.136157
   80      -16.692100
   81      -16.692098
   82      -16.666255
   83      -16.666252
   84      -16.666252
   85      -16.666249
   86      -16.658458
   87      -16.654913
   88      -16.654913
   89      -16.654898
   90      -16.654898
   91      -16.653452
   92      -16.653451
   93      -16.653405
   94      -16.653403
   95      -16.653324
   96      -16.653321
   97      -16.653263
   98      -16.653260
   99      -16.653180
  100      -16.653179
  101      -16.653118
  102      -16.653116
  103      -16.651840
  104      -16.651836
  105      -16.651834
  106      -16.651773
  107      -16.651770
  108      -16.651766
  109      -16.647203
  110      -16.647199
  111      -16.646779
  112      -16.646777
  113      -16.645676
  114      -16.645674
  115      -16.645651
  116      -16.645648
  117      -16.645637
  118      -16.645635
  119      -16.645601
  120      -16.645599
  121      -16.645579
  122      -16.645575
  123      -16.645527
  124      -16.645523
  125      -16.644774
  126      -16.644769
  127      -16.644732
  128      -16.644638
  129      -16.644594
  130      -16.644583
  131      -16.639478
  132      -16.639476
  133      -16.639435
  134      -16.639432
  135      -16.638812
  136      -16.638812
  137      -16.638808
  138      -16.638808
  139      -16.635572
  140      -16.635459
  141      -16.635431
  142      -16.635342
  143      -16.635317
  144      -16.635196
  145      -16.627554
  146      -16.627553
  147      -16.626752
  148      -16.626752
  149      -16.626659
  150      -16.626658
  151      -16.626643
  152      -16.626641
  153      -16.626540
  154      -16.626538
  155      -16.626526
  156      -16.626525
  157      -16.626415
  158      -16.626415
  159      -16.621806
  160      -16.621803
  161      -16.620390
  162      -16.620337
  163       -8.885749
  164       -8.885746
  165       -8.192237
  166       -8.192236
  167       -8.192207
  168       -8.192206
  169       -8.192170
  170       -8.192167
  171       -8.192144
  172       -8.192141
  173       -8.192104
  174       -8.192104
  175       -8.192075
  176       -8.192074
  177       -8.077954
  178       -8.077953
  179       -7.956787
  180       -7.956785
  181       -7.956762
  182       -7.956712
  183       -7.956692
  184       -7.956681
  185       -7.826406
  186       -7.826377
  187       -7.673522
  188       -7.673521
  189       -7.673521
  190       -7.673519
  191       -7.181679
  192       -7.181678
  193       -7.181666
  194       -7.181665
  195       -7.181659
  196       -7.181655
  197       -6.765199
  198       -6.765199
  199       -6.765197
  200       -6.765196
  201       -6.656527
  202       -6.656527
  203       -6.656521
  204       -6.656520
  205       -6.656481
  206       -6.656481
  207       -6.656439
  208       -6.656438
  209       -6.656398
  210       -6.656396
  211       -6.656396
  212       -6.656396
  213       -6.330803
  214       -6.330802
  215       -6.159265
  216       -6.159262
  217       -6.159231
  218       -6.159227
  219       -6.156236
  220       -6.156234
  221       -6.156233
  222       -6.156231
  223       -5.718632
  224       -5.718631
  225       -5.718624
  226       -5.718623
  227       -5.718581
  228       -5.718580
  229       -5.718580
  230       -5.718579
  231       -5.718547
  232       -5.718546
  233       -5.718541
  234       -5.718539
  235       -5.149635
  236       -5.149633
  237       -5.145435
  238       -5.145433
  239       -5.102101
  240       -5.102101
  241       -5.055070
  242       -5.053369
  243       -5.053369
  244       -5.053365
  245       -5.053349
  246       -5.053348
  247       -5.053346
  248       -5.035627
  249       -5.035599
  250       -5.035557
  251       -5.035530
  252       -5.035520
  253       -5.035450
  254       -4.937675
  255       -4.937674
  256       -4.937645
  257       -4.937644
  258       -4.937641
  259       -4.937639
  260       -4.937596
  261       -4.937595
  262       -4.937594
  263       -4.937593
  264       -4.937556
  265       -4.937554
  266       -4.869772
  267       -4.869748
  268       -4.869737
  269       -4.869703
  270       -4.869700
  271       -4.869686
  272       -4.842278
  273       -4.842276
  274       -4.842253
  275       -4.842251
  276       -4.822877
  277       -4.822877
  278       -4.822876
  279       -4.822876
  280       -4.725624
  281       -4.633033
  282       -4.633027
  283       -4.509516
  284       -4.509516
  285       -4.509507
  286       -4.509506
  287       -4.509471
  288       -4.509471
  289       -4.509469
  290       -4.509468
  291       -4.509430
  292       -4.509430
  293       -4.509418
  294       -4.509418
  295       -4.443680
  296       -4.443677
  297       -4.443676
  298       -4.443673
  299       -4.269677
  300       -4.269676
  301       -4.269675
  302       -4.269674
  303       -4.253385
  304       -4.253385
  305       -4.253351
  306       -4.253350
  307       -4.253345
  308       -4.253342
  309       -4.253340
  310       -4.253338
  311       -4.253334
  312       -4.253333
  313       -4.253295
  314       -4.253294
  315       -4.106033
  316       -4.106014
  317       -4.106003
  318       -4.105990
  319       -4.105981
  320       -4.105972
  321       -4.003725
  322       -4.003722
  323       -3.855178
  324       -3.855176
  325       -2.538029
  326       -2.538027
  327       -2.538026
  328       -2.538024
  329       -2.481686
  330       -2.481685
  331       -2.481668
  332       -2.481668
  333       -2.481608
  334       -2.481608
  335       -2.481603
  336       -2.481603
  337       -2.481543
  338       -2.481543
  339       -2.481527
  340       -2.481526
  341       -2.456091
  342       -2.456075
  343       -2.456074
  344       -2.455998
  345       -2.455993
  346       -2.455981
  347       -2.322500
  348       -2.322498
  349       -2.322379
  350       -2.322378
  351       -2.283439
  352       -2.283438
  353       -2.283425
  354       -2.283424
  355       -2.283380
  356       -2.283379
  357       -2.283322
  358       -2.283322
  359       -2.283282
  360       -2.283282
  361       -2.283268
  362       -2.283267
  363       -2.223801
  364       -2.216263
  365       -2.216263
  366       -2.216261
  367       -2.216261
  368       -2.185473
  369       -2.185451
  370       -2.185438
  371       -2.185362
  372       -2.185335
  373       -2.185314
  374       -2.180894
  375       -2.180894
  376       -2.179818
  377       -2.179806
  378       -2.147941
  379       -2.147941
  380       -2.147939
  381       -2.147939
  382       -2.020126
  383       -2.020123
  384       -2.014328
  385       -2.014327
  386       -1.892920
  387       -1.892917
  388       -1.889317
  389       -1.889251
  390       -1.889225
  391       -1.889225
  392       -1.889206
  393       -1.889137
  394       -1.832760
  395       -1.832758
  396       -1.832728
  397       -1.832727
  398       -1.832705
  399       -1.832703
  400       -1.832671
  401       -1.832669
  402       -1.832626
  403       -1.832624
  404       -1.832566
  405       -1.832564
  406       -1.829746
  407       -1.680021
  408       -1.679991
  409       -1.679847
  410       -1.679822
  411       -1.679778
  412       -1.679721
  413       -1.648083
  414       -1.648082
  415       -1.648058
  416       -1.648058
  417       -1.648037
  418       -1.648036
  419       -1.648031
  420       -1.648031
  421       -1.648002
  422       -1.648002
  423       -1.647987
  424       -1.647987
  425       -1.555896
  426       -1.555894
  427       -1.497179
  428       -1.497179
  429       -1.497121
  430       -1.497120
  431       -1.497118
  432       -1.497117
  433       -1.497108
  434       -1.497108
  435       -1.497107
  436       -1.497107
  437       -1.497055
  438       -1.497054
  439       -1.484620
  440       -1.484620
  441       -1.406536
  442       -1.406535
  443       -1.372956
  444       -1.372953
  445       -1.372947
  446       -1.372945
  447       -1.371032
  448       -1.370996
  449       -1.370919
  450       -1.370914
  451       -1.370887
  452       -1.370834
  453       -1.334350
  454       -1.334349
  455       -1.334349
  456       -1.334349
  457       -1.310505
  458       -1.310504
  459       -1.310469
  460       -1.310469
  461       -1.275116
  462       -1.275116
  463       -1.275115
  464       -1.275115
  465       -1.223592
  466       -1.223579
  467       -1.223546
  468       -1.223529
  469       -1.223476
  470       -1.223466
  471       -1.148780
  472       -1.148780
  473       -1.120696
  474       -1.120696
  475       -1.044547
  476       -1.044542
  477       -1.041128
  478       -1.041126
  479       -0.982272
  480       -0.982264
  481       -0.982262
  482       -0.982261
  483       -0.982043
  484       -0.982038
  485       -0.981466
  486       -0.973721
  487       -0.973332
  488       -0.929796
  489       -0.929795
  490       -0.929770
  491       -0.929769
  492       -0.929716
  493       -0.929715
  494       -0.929682
  495       -0.929681
  496       -0.929659
  497       -0.929658
  498       -0.929585
  499       -0.929584
  500       -0.866924
  501       -0.866923
  502       -0.866897
  503       -0.866896
  504       -0.866863
  505       -0.866863
  506       -0.866829
  507       -0.866828
  508       -0.866810
  509       -0.866810
  510       -0.866787
  511       -0.866787
  512       -0.695444
  513       -0.695438
  514       -0.695241
  515       -0.695236
  516       -0.656436
  517       -0.656435
  518       -0.656376
  519       -0.656376
  520       -0.656363
  521       -0.656362
  522       -0.656286
  523       -0.656286
  524       -0.656286
  525       -0.656285
  526       -0.656230
  527       -0.656229
  528       -0.631058
  529       -0.631058
  530       -0.631054
  531       -0.631054
  532       -0.445088
  533       -0.445050
  534       -0.444979
  535       -0.444933
  536       -0.444924
  537       -0.444809
  538       -0.377917
  539       -0.377917
  540       -0.377914
  541       -0.377914
  542       -0.326602
  543       -0.326599
  544       -0.282481
  545       -0.282463
  546       -0.282272
  547       -0.282254
  548       -0.282245
  549       -0.282222
  550       -0.275727
  551       -0.275727
  552       -0.275718
  553       -0.275718
  554       -0.225835
  555       -0.225604
  556       -0.138838
  557       -0.138838
  558       -0.138824
  559       -0.138824
  560       -0.138817
  561       -0.138817
  562       -0.138795
  563       -0.138795
  564       -0.138726
  565       -0.138725
  566       -0.138704
  567       -0.138703
  568       -0.069710
  569       -0.069677
  570       -0.069658
  571       -0.069591
  572       -0.069586
  573       -0.069548
  574        0.078677
  575        0.078677
  576        0.078681
  577        0.078681
  578        0.127961
  579        0.127964
  580        0.127974
  581        0.127976
  582        0.128101
  583        0.128104
  584        0.128112
  585        0.128114
  586        0.128147
  587        0.128150
  588        0.128169
  589        0.128172
  590        0.143729
  591        0.143729
  592        0.143735
  593        0.143735
  594        0.249941
  595        0.249942
  596        0.249950
  597        0.249950
  598        0.249971
  599        0.249972
  600        0.249976
  601        0.249976
  602        0.250001
  603        0.250001
  604        0.250009
  605        0.250010
  606        0.311272
  607        0.311278
  608        0.311478
  609        0.311482
  610        0.318781
  611        0.318796
  612        0.415584
  613        0.415586
  614        0.415591
  615        0.415593
  616        0.436998
  617        0.437001
  618        0.460177
  619        0.460177
  620        0.460200
  621        0.460201
  622        0.460204
  623        0.460206
  624        0.612962
  625        0.662152
  626        0.662153
  627        0.662184
  628        0.662185
  629        0.662193
  630        0.662194
  631        0.662224
  632        0.662225
  633        0.662258
  634        0.662259
  635        0.662314
  636        0.662315
  637        0.728153
  638        0.728158
  639        0.728214
  640        0.728228
  641        0.728244
  642        0.728320
  643        0.730359
  644        0.730360
  645        0.752623
  646        0.752631
  647        0.796720
  648        0.796720
  649        6.740202
  650        7.687846
  651        7.687848
  652        8.062509
  653        8.062580
  654        8.062603
  655        8.062707
  656        8.062860
  657        8.062877
  658        8.747850
  659        8.747852
  660        8.747922
  661        8.747923
  662        8.747926
  663        8.747928
  664        8.748039
  665        8.748041
  666        8.748178
  667        8.748180
  668        8.748183
  669        8.748185
  670        9.465082
  671        9.465083
  672        9.551316
  673        9.551319
  674        9.552065
  675        9.552066
  676        9.552787
  677        9.552818
  678        9.873539
  679        9.873539
  680        9.873560
  681        9.873560
  682        9.906626
  683        9.906668
  684        9.906789
  685        9.906846
  686        9.906885
  687        9.906959
  688        9.940674
  689        9.940675
  690        9.940680
  691        9.940681
  692       10.006423
  693       10.006887
  694       10.131478
  695       10.131478
  696       10.131492
  697       10.131493
  698       10.131603
  699       10.131603
  700       10.131604
  701       10.131604
  702       10.131708
  703       10.131709
  704       10.131737
  705       10.131738
  706       10.202464
  707       10.202470
  708       10.302024
  709       10.302586
  710       10.343269
  711       10.343271
  712       10.343291
  713       10.343292
  714       10.343389
  715       10.343390
  716       10.343432
  717       10.343432
  718       10.343550
  719       10.343551
  720       10.343557
  721       10.343558
  722       10.389617
  723       10.389617
  724       10.489673
  725       10.489701
  726       10.489720
  727       10.489759
  728       10.489818
  729       10.489888
  730       10.507949
  731       10.507965
  732       10.542349
  733       10.542355
  734       10.542409
  735       10.542431
  736       10.542673
  737       10.542684
  738       10.542727
  739       10.542731
  740       10.542848
  741       10.542862
  742       10.542947
  743       10.542960
  744       10.570502
  745       10.570517
  746       10.570521
  747       10.570540
  748       10.570557
  749       10.570659
  750       10.623474
  751       10.623478
  752       10.623491
  753       10.623514
  754       10.772625
  755       10.772645
  756       10.772686
  757       10.772721
  758       10.772756
  759       10.772762
  760       10.772785
  761       10.772819
  762       10.772858
  763       10.772894
  764       10.773180
  765       10.774359
  766       10.825810
  767       10.825870
  768       10.826357
  769       10.827839
  770       10.890535
  771       10.890695
  772       10.890924
  773       10.891141
  774       10.891754
  775       10.895840
  776       11.000411
  777       11.003312
  778       11.016584
  779       11.024454
  780       11.064679
  781       11.066445
  782       11.069807
  783       11.078001
  784       11.121393
 
  0.5000000E+00  0.1460036E-16  0.6106774E-23  0.3750000E+00
    1      -18.746164
    2      -18.746051
    3      -18.600033
    4      -18.600033
    5      -18.552893
    6      -18.552890
    7      -18.552782
    8      -18.552780
    9      -18.446075
   10      -18.446075
   11      -18.446073
   12      -18.446073
   13      -18.361120
   14      -18.361057
   15      -18.361041
   16      -18.360979
   17      -18.353719
   18      -18.323034
   19      -18.323031
   20      -18.323016
   21      -18.323014
   22      -18.322956
   23      -18.322955
   24      -18.322951
   25      -18.322948
   26      -18.322878
   27      -18.322875
   28      -18.021327
   29      -18.021327
   30      -18.021224
   31      -18.021224
   32      -17.972491
   33      -17.972489
   34      -17.972489
   35      -17.972487
   36      -17.888519
   37      -17.875212
   38      -17.875210
   39      -17.875181
   40      -17.875177
   41      -17.875176
   42      -17.875174
   43      -17.875143
   44      -17.875140
   45      -17.873413
   46      -17.873411
   47      -17.868545
   48      -17.868503
   49      -17.868421
   50      -17.868375
   51      -17.586633
   52      -17.586630
   53      -17.397584
   54      -17.397566
   55      -17.330206
   56      -17.330203
   57      -17.325807
   58      -17.325806
   59      -17.325777
   60      -17.325776
   61      -17.325725
   62      -17.325724
   63      -17.325695
   64      -17.325695
   65      -17.294536
   66      -17.294412
   67      -17.294376
   68      -17.294263
   69      -17.287212
   70      -17.287208
   71      -17.283941
   72      -17.283747
   73      -17.272113
   74      -17.053878
   75      -17.053878
   76      -17.053875
   77      -17.053875
   78      -16.839318
   79      -16.839317
   80      -16.839270
   81      -16.839269
   82      -16.662185
   83      -16.662183
   84      -16.661600
   85      -16.661599
   86      -16.661553
   87      -16.661553
   88      -16.661544
   89      -16.661544
   90      -16.661501
   91      -16.661501
   92      -16.656019
   93      -16.656015
   94      -16.653594
   95      -16.653594
   96      -16.653498
   97      -16.653497
   98      -16.653438
   99      -16.653437
  100      -16.653343
  101      -16.653342
  102      -16.653221
  103      -16.653221
  104      -16.652665
  105      -16.652663
  106      -16.652650
  107      -16.652649
  108      -16.651882
  109      -16.650218
  110      -16.650147
  111      -16.650143
  112      -16.649897
  113      -16.649885
  114      -16.649863
  115      -16.649863
  116      -16.645265
  117      -16.645239
  118      -16.645128
  119      -16.645114
  120      -16.642089
  121      -16.642081
  122      -16.641992
  123      -16.641989
  124      -16.641988
  125      -16.641986
  126      -16.640612
  127      -16.640294
  128      -16.640291
  129      -16.640225
  130      -16.640222
  131      -16.637922
  132      -16.637875
  133      -16.637849
  134      -16.637797
  135      -16.632259
  136      -16.632259
  137      -16.632173
  138      -16.632173
  139      -16.632170
  140      -16.632169
  141      -16.632134
  142      -16.632133
  143      -16.632127
  144      -16.632125
  145      -16.632016
  146      -16.632013
  147      -16.631875
  148      -16.631873
  149      -16.630793
  150      -16.630768
  151      -16.629959
  152      -16.629838
  153      -16.625795
  154      -16.625601
  155      -16.623563
  156      -16.623561
  157      -16.623559
  158      -16.623557
  159      -16.621447
  160      -16.621446
  161      -16.621421
  162      -16.621420
  163       -8.680780
  164       -8.680777
  165       -8.680721
  166       -8.680718
  167       -8.330199
  168       -8.330198
  169       -8.330196
  170       -8.330196
  171       -8.029613
  172       -8.029606
  173       -8.029575
  174       -8.029569
  175       -7.997144
  176       -7.950259
  177       -7.950259
  178       -7.871571
  179       -7.871490
  180       -7.869889
  181       -7.869888
  182       -7.869864
  183       -7.869862
  184       -7.869845
  185       -7.869843
  186       -7.869821
  187       -7.869818
  188       -7.853476
  189       -7.853472
  190       -7.632803
  191       -7.632775
  192       -7.280176
  193       -7.280174
  194       -6.896345
  195       -6.850208
  196       -6.850206
  197       -6.782172
  198       -6.782164
  199       -6.782145
  200       -6.782140
  201       -6.762409
  202       -6.762407
  203       -6.762383
  204       -6.762381
  205       -6.762358
  206       -6.762356
  207       -6.762331
  208       -6.762329
  209       -6.571213
  210       -6.571213
  211       -6.571211
  212       -6.571211
  213       -6.427293
  214       -6.427292
  215       -6.427247
  216       -6.427247
  217       -5.945496
  218       -5.945494
  219       -5.945450
  220       -5.945448
  221       -5.945413
  222       -5.945411
  223       -5.945369
  224       -5.945366
  225       -5.835205
  226       -5.835203
  227       -5.690120
  228       -5.690120
  229       -5.690119
  230       -5.690119
  231       -5.522220
  232       -5.522211
  233       -5.522172
  234       -5.522163
  235       -5.443879
  236       -5.443879
  237       -5.443861
  238       -5.443861
  239       -5.254987
  240       -5.150816
  241       -5.150815
  242       -5.065689
  243       -5.065687
  244       -5.065611
  245       -5.065609
  246       -5.046260
  247       -5.035965
  248       -5.035890
  249       -4.948211
  250       -4.948211
  251       -4.948210
  252       -4.948209
  253       -4.886527
  254       -4.886498
  255       -4.886473
  256       -4.886440
  257       -4.885894
  258       -4.885892
  259       -4.875580
  260       -4.875579
  261       -4.870739
  262       -4.860347
  263       -4.860347
  264       -4.860330
  265       -4.860330
  266       -4.860313
  267       -4.860312
  268       -4.860297
  269       -4.860296
  270       -4.859220
  271       -4.859195
  272       -4.859171
  273       -4.859144
  274       -4.856756
  275       -4.856756
  276       -4.831800
  277       -4.831751
  278       -4.796897
  279       -4.796896
  280       -4.796857
  281       -4.796856
  282       -4.756568
  283       -4.756515
  284       -4.580381
  285       -4.580380
  286       -4.580380
  287       -4.580379
  288       -4.432798
  289       -4.432797
  290       -4.432784
  291       -4.432782
  292       -4.432771
  293       -4.432770
  294       -4.432755
  295       -4.432754
  296       -4.415520
  297       -4.415469
  298       -4.408039
  299       -4.408036
  300       -4.321579
  301       -4.321577
  302       -4.298193
  303       -4.298191
  304       -4.298190
  305       -4.298188
  306       -4.298150
  307       -4.298149
  308       -4.298148
  309       -4.298148
  310       -4.208302
  311       -4.208300
  312       -4.208299
  313       -4.208297
  314       -4.184521
  315       -4.184518
  316       -4.084820
  317       -4.084818
  318       -4.084790
  319       -4.084787
  320       -3.950594
  321       -3.946085
  322       -3.946083
  323       -3.946060
  324       -3.946059
  325       -2.515449
  326       -2.515447
  327       -2.515443
  328       -2.515441
  329       -2.515367
  330       -2.515365
  331       -2.515364
  332       -2.515361
  333       -2.494103
  334       -2.494100
  335       -2.458867
  336       -2.458864
  337       -2.448603
  338       -2.448603
  339       -2.448602
  340       -2.448602
  341       -2.429371
  342       -2.429369
  343       -2.408563
  344       -2.408561
  345       -2.408479
  346       -2.408473
  347       -2.401193
  348       -2.348468
  349       -2.348422
  350       -2.343817
  351       -2.343814
  352       -2.343796
  353       -2.343794
  354       -2.343736
  355       -2.343733
  356       -2.343715
  357       -2.343712
  358       -2.320967
  359       -2.319610
  360       -2.319609
  361       -2.319540
  362       -2.319539
  363       -2.259112
  364       -2.259099
  365       -2.259025
  366       -2.259014
  367       -2.207515
  368       -2.207513
  369       -2.190375
  370       -2.190317
  371       -2.186639
  372       -2.186638
  373       -2.186638
  374       -2.186637
  375       -2.104369
  376       -2.104299
  377       -2.047133
  378       -2.047132
  379       -2.047069
  380       -2.047068
  381       -1.959506
  382       -1.959503
  383       -1.959467
  384       -1.959464
  385       -1.959381
  386       -1.959379
  387       -1.959350
  388       -1.959348
  389       -1.923750
  390       -1.923724
  391       -1.923649
  392       -1.923626
  393       -1.913010
  394       -1.913009
  395       -1.854148
  396       -1.854146
  397       -1.854083
  398       -1.854080
  399       -1.850845
  400       -1.850843
  401       -1.850839
  402       -1.850837
  403       -1.849720
  404       -1.849717
  405       -1.848835
  406       -1.717543
  407       -1.717542
  408       -1.717541
  409       -1.717540
  410       -1.688363
  411       -1.651056
  412       -1.651055
  413       -1.651025
  414       -1.651025
  415       -1.607501
  416       -1.607497
  417       -1.607451
  418       -1.607447
  419       -1.604670
  420       -1.604658
  421       -1.573713
  422       -1.573711
  423       -1.571907
  424       -1.571904
  425       -1.531622
  426       -1.531620
  427       -1.531592
  428       -1.531590
  429       -1.531515
  430       -1.531512
  431       -1.531492
  432       -1.531489
  433       -1.509339
  434       -1.509337
  435       -1.509324
  436       -1.509322
  437       -1.459440
  438       -1.459437
  439       -1.455501
  440       -1.455499
  441       -1.443343
  442       -1.443342
  443       -1.443340
  444       -1.443339
  445       -1.418105
  446       -1.418061
  447       -1.418055
  448       -1.418012
  449       -1.407737
  450       -1.407734
  451       -1.407688
  452       -1.407686
  453       -1.407640
  454       -1.407638
  455       -1.407587
  456       -1.407585
  457       -1.392524
  458       -1.306490
  459       -1.289186
  460       -1.289180
  461       -1.289090
  462       -1.289086
  463       -1.215497
  464       -1.215496
  465       -1.153997
  466       -1.153997
  467       -1.066819
  468       -1.066818
  469       -1.066729
  470       -1.066727
  471       -1.055300
  472       -1.055298
  473       -1.055223
  474       -1.055221
  475       -1.055221
  476       -1.055218
  477       -1.055142
  478       -1.055139
  479       -1.045530
  480       -1.045494
  481       -1.003594
  482       -1.003593
  483       -1.003593
  484       -1.003592
  485       -0.996443
  486       -0.996442
  487       -0.996386
  488       -0.996385
  489       -0.980075
  490       -0.980013
  491       -0.959497
  492       -0.959494
  493       -0.956180
  494       -0.954045
  495       -0.954044
  496       -0.916521
  497       -0.916520
  498       -0.916519
  499       -0.916519
  500       -0.910615
  501       -0.910613
  502       -0.910589
  503       -0.910587
  504       -0.902031
  505       -0.901987
  506       -0.901818
  507       -0.901776
  508       -0.732415
  509       -0.732414
  510       -0.732413
  511       -0.732412
  512       -0.732293
  513       -0.732293
  514       -0.732287
  515       -0.732287
  516       -0.692212
  517       -0.692174
  518       -0.692158
  519       -0.692102
  520       -0.690879
  521       -0.690877
  522       -0.690874
  523       -0.690872
  524       -0.658400
  525       -0.658398
  526       -0.522316
  527       -0.522315
  528       -0.493231
  529       -0.493230
  530       -0.472315
  531       -0.472313
  532       -0.472251
  533       -0.472250
  534       -0.472239
  535       -0.472238
  536       -0.472177
  537       -0.472175
  538       -0.421565
  539       -0.419440
  540       -0.419387
  541       -0.419363
  542       -0.419314
  543       -0.402441
  544       -0.345879
  545       -0.345879
  546       -0.338628
  547       -0.338527
  548       -0.286377
  549       -0.286373
  550       -0.229013
  551       -0.225781
  552       -0.225779
  553       -0.225741
  554       -0.225739
  555       -0.197575
  556       -0.197567
  557       -0.191525
  558       -0.191524
  559       -0.191480
  560       -0.191479
  561       -0.191425
  562       -0.191425
  563       -0.191391
  564       -0.191391
  565       -0.119710