 243 243   0   0
  0.1311381E+02  0.1499190E-08  0.1499190E-08  0.1637160E-08  0.5000000E-15
  1.000000000000000E-004
  CAR 
 (Si O2)81  (P1) ~ Ciellie_MCM41 (MD     
     12.82458587    -20.33153611  301      1.12323782      1.00000000
    -20.332  0.0000E+00  0.0000E+00
    -20.221  0.0000E+00  0.0000E+00
    -20.110  0.0000E+00  0.0000E+00
    -20.000  0.0000E+00  0.0000E+00
    -19.889  0.0000E+00  0.0000E+00
    -19.779  0.0000E+00  0.0000E+00
    -19.668  0.0000E+00  0.0000E+00
    -19.558  0.0000E+00  0.0000E+00
    -19.447  0.0000E+00  0.0000E+00
    -19.337  0.0000E+00  0.0000E+00
    -19.226  0.0000E+00  0.0000E+00
    -19.116  0.1279E-16  0.1413E-17
    -19.005  0.5965E-07  0.6593E-08
    -18.895  0.2636E-01  0.2914E-02
    -18.784  0.6399E+01  0.7102E+00
    -18.674  0.3171E+02  0.4215E+01
    -18.563  0.5356E+02  0.1013E+02
    -18.453  0.7974E+02  0.1895E+02
    -18.342  0.1564E+03  0.3623E+02
    -18.232  0.1599E+03  0.5391E+02
    -18.121  0.3068E+02  0.5730E+02
    -18.011  0.4204E+02  0.6195E+02
    -17.900  0.1159E+03  0.7475E+02
    -17.790  0.1795E+03  0.9460E+02
    -17.679  0.6448E+02  0.1017E+03
    -17.569  0.3150E+02  0.1052E+03
    -17.458  0.2548E+02  0.1080E+03
    -17.347  0.6592E+02  0.1153E+03
    -17.237  0.1990E+03  0.1373E+03
    -17.126  0.9194E+02  0.1475E+03
    -17.016  0.5112E+02  0.1531E+03
    -16.905  0.3587E+02  0.1571E+03
    -16.795  0.2509E+02  0.1598E+03
    -16.684  0.2106E+03  0.1831E+03
    -16.574  0.1226E+04  0.3186E+03
    -16.463  0.4863E+02  0.3240E+03
    -16.353  0.1290E-02  0.3240E+03
    -16.242  0.7130E-11  0.3240E+03
    -16.132  0.0000E+00  0.3240E+03
    -16.021  0.0000E+00  0.3240E+03
    -15.911  0.0000E+00  0.3240E+03
    -15.800  0.0000E+00  0.3240E+03
    -15.690  0.0000E+00  0.3240E+03
    -15.579  0.0000E+00  0.3240E+03
    -15.469  0.0000E+00  0.3240E+03
    -15.358  0.0000E+00  0.3240E+03
    -15.248  0.0000E+00  0.3240E+03
    -15.137  0.0000E+00  0.3240E+03
    -15.027  0.0000E+00  0.3240E+03
    -14.916  0.0000E+00  0.3240E+03
    -14.806  0.0000E+00  0.3240E+03
    -14.695  0.0000E+00  0.3240E+03
    -14.584  0.0000E+00  0.3240E+03
    -14.474  0.0000E+00  0.3240E+03
    -14.363  0.0000E+00  0.3240E+03
    -14.253  0.0000E+00  0.3240E+03
    -14.142  0.0000E+00  0.3240E+03
    -14.032  0.0000E+00  0.3240E+03
    -13.921  0.0000E+00  0.3240E+03
    -13.811  0.0000E+00  0.3240E+03
    -13.700  0.0000E+00  0.3240E+03
    -13.590  0.0000E+00  0.3240E+03
    -13.479  0.0000E+00  0.3240E+03
    -13.369  0.0000E+00  0.3240E+03
    -13.258  0.0000E+00  0.3240E+03
    -13.148  0.0000E+00  0.3240E+03
    -13.037  0.0000E+00  0.3240E+03
    -12.927  0.0000E+00  0.3240E+03
    -12.816  0.0000E+00  0.3240E+03
    -12.706  0.0000E+00  0.3240E+03
    -12.595  0.0000E+00  0.3240E+03
    -12.485  0.0000E+00  0.3240E+03
    -12.374  0.0000E+00  0.3240E+03
    -12.264  0.0000E+00  0.3240E+03
    -12.153  0.0000E+00  0.3240E+03
    -12.043  0.0000E+00  0.3240E+03
    -11.932  0.0000E+00  0.3240E+03
    -11.821  0.0000E+00  0.3240E+03
    -11.711  0.0000E+00  0.3240E+03
    -11.600  0.0000E+00  0.3240E+03
    -11.490  0.0000E+00  0.3240E+03
    -11.379  0.0000E+00  0.3240E+03
    -11.269  0.0000E+00  0.3240E+03
    -11.158  0.0000E+00  0.3240E+03
    -11.048  0.0000E+00  0.3240E+03
    -10.937  0.0000E+00  0.3240E+03
    -10.827  0.0000E+00  0.3240E+03
    -10.716  0.0000E+00  0.3240E+03
    -10.606  0.0000E+00  0.3240E+03
    -10.495  0.0000E+00  0.3240E+03
    -10.385  0.0000E+00  0.3240E+03
    -10.274  0.0000E+00  0.3240E+03
    -10.164  0.0000E+00  0.3240E+03
    -10.053  0.0000E+00  0.3240E+03
     -9.943  0.0000E+00  0.3240E+03
     -9.832  0.0000E+00  0.3240E+03
     -9.722  0.0000E+00  0.3240E+03
     -9.611  0.0000E+00  0.3240E+03
     -9.501  0.0000E+00  0.3240E+03
     -9.390  0.0000E+00  0.3240E+03
     -9.279  0.2962E-12  0.3240E+03
     -9.169  0.1471E-04  0.3240E+03
     -9.058  0.1414E+00  0.3240E+03
     -8.948  0.3366E+01  0.3244E+03
     -8.837  0.7893E+01  0.3253E+03
     -8.727  0.1126E+02  0.3265E+03
     -8.616  0.1449E+02  0.3281E+03
     -8.506  0.1791E+02  0.3301E+03
     -8.395  0.2185E+02  0.3325E+03
     -8.285  0.2678E+02  0.3355E+03
     -8.174  0.3387E+02  0.3392E+03
     -8.064  0.5688E+02  0.3455E+03
     -7.953  0.1552E+03  0.3626E+03
     -7.843  0.8210E+02  0.3717E+03
     -7.732  0.3404E+02  0.3755E+03
     -7.622  0.1693E+02  0.3773E+03
     -7.511  0.1179E+02  0.3787E+03
     -7.401  0.1090E+02  0.3799E+03
     -7.290  0.1255E+02  0.3812E+03
     -7.180  0.1654E+02  0.3831E+03
     -7.069  0.2356E+02  0.3857E+03
     -6.959  0.3693E+02  0.3898E+03
     -6.848  0.7765E+02  0.3983E+03
     -6.738  0.1113E+03  0.4106E+03
     -6.627  0.7059E+02  0.4184E+03
     -6.516  0.4142E+02  0.4230E+03
     -6.406  0.2788E+02  0.4261E+03
     -6.295  0.1914E+02  0.4282E+03
     -6.185  0.1466E+02  0.4298E+03
     -6.074  0.3496E+02  0.4337E+03
     -5.964  0.5771E+02  0.4401E+03
     -5.853  0.6830E+02  0.4476E+03
     -5.743  0.5893E+02  0.4541E+03
     -5.632  0.5316E+02  0.4600E+03
     -5.522  0.4943E+02  0.4655E+03
     -5.411  0.4609E+02  0.4706E+03
     -5.301  0.4206E+02  0.4752E+03
     -5.190  0.3630E+02  0.4792E+03
     -5.080  0.6072E+02  0.4859E+03
     -4.969  0.1957E+03  0.5076E+03
     -4.859  0.2239E+03  0.5323E+03
     -4.748  0.1595E+03  0.5499E+03
     -4.638  0.1364E+03  0.5650E+03
     -4.527  0.1372E+03  0.5802E+03
     -4.417  0.1200E+03  0.5934E+03
     -4.306  0.9858E+02  0.6043E+03
     -4.196  0.1545E+03  0.6214E+03
     -4.085  0.1107E+03  0.6336E+03
     -3.975  0.8404E+02  0.6429E+03
     -3.864  0.4281E+02  0.6477E+03
     -3.753  0.3038E+01  0.6480E+03
     -3.643  0.1664E-02  0.6480E+03
     -3.532  0.3056E-09  0.6480E+03
     -3.422  0.0000E+00  0.6480E+03
     -3.311  0.0000E+00  0.6480E+03
     -3.201  0.0000E+00  0.6480E+03
     -3.090  0.0000E+00  0.6480E+03
     -2.980  0.0000E+00  0.6480E+03
     -2.869  0.0000E+00  0.6480E+03
     -2.759  0.3710E-07  0.6480E+03
     -2.648  0.5862E-01  0.6480E+03
     -2.538  0.4112E+02  0.6526E+03
     -2.427  0.2893E+03  0.6845E+03
     -2.317  0.2430E+03  0.7114E+03
     -2.206  0.2178E+03  0.7355E+03
     -2.096  0.1620E+03  0.7534E+03
     -1.985  0.1313E+03  0.7679E+03
     -1.875  0.1994E+03  0.7899E+03
     -1.764  0.1857E+03  0.8104E+03
     -1.654  0.1594E+03  0.8281E+03
     -1.543  0.2201E+03  0.8524E+03
     -1.433  0.3034E+03  0.8859E+03
     -1.322  0.2681E+03  0.9155E+03
     -1.212  0.1155E+03  0.9283E+03
     -1.101  0.1237E+03  0.9420E+03
     -0.990  0.2472E+03  0.9693E+03
     -0.880  0.3134E+03  0.1004E+04
     -0.769  0.1609E+03  0.1022E+04
     -0.659  0.1423E+03  0.1037E+04
     -0.548  0.1867E+03  0.1058E+04
     -0.438  0.1691E+03  0.1077E+04
     -0.327  0.1177E+03  0.1090E+04
     -0.217  0.1597E+03  0.1107E+04
     -0.106  0.2028E+03  0.1130E+04
      0.004  0.1817E+03  0.1150E+04
      0.115  0.1804E+03  0.1170E+04
      0.225  0.1635E+03  0.1188E+04
      0.336  0.1794E+03  0.1208E+04
      0.446  0.2122E+03  0.1231E+04
      0.557  0.1649E+03  0.1249E+04
      0.667  0.1506E+03  0.1266E+04
      0.778  0.2275E+03  0.1291E+04
      0.888  0.4328E+02  0.1296E+04
      0.999  0.1170E+00  0.1296E+04
      1.109  0.2099E-06  0.1296E+04
      1.220  0.0000E+00  0.1296E+04
      1.330  0.0000E+00  0.1296E+04
      1.441  0.0000E+00  0.1296E+04
      1.552  0.0000E+00  0.1296E+04
      1.662  0.0000E+00  0.1296E+04
      1.773  0.0000E+00  0.1296E+04
      1.883  0.0000E+00  0.1296E+04
      1.994  0.0000E+00  0.1296E+04
      2.104  0.0000E+00  0.1296E+04
      2.215  0.0000E+00  0.1296E+04
      2.325  0.0000E+00  0.1296E+04
      2.436  0.0000E+00  0.1296E+04
      2.546  0.0000E+00  0.1296E+04
      2.657  0.0000E+00  0.1296E+04
      2.767  0.0000E+00  0.1296E+04
      2.878  0.0000E+00  0.1296E+04
      2.988  0.0000E+00  0.1296E+04
      3.099  0.0000E+00  0.1296E+04
      3.209  0.0000E+00  0.1296E+04
      3.320  0.0000E+00  0.1296E+04
      3.430  0.0000E+00  0.1296E+04
      3.541  0.0000E+00  0.1296E+04
      3.651  0.0000E+00  0.1296E+04
      3.762  0.0000E+00  0.1296E+04
      3.872  0.0000E+00  0.1296E+04
      3.983  0.0000E+00  0.1296E+04
      4.093  0.0000E+00  0.1296E+04
      4.204  0.0000E+00  0.1296E+04
      4.315  0.0000E+00  0.1296E+04
      4.425  0.0000E+00  0.1296E+04
      4.536  0.0000E+00  0.1296E+04
      4.646  0.0000E+00  0.1296E+04
      4.757  0.0000E+00  0.1296E+04
      4.867  0.0000E+00  0.1296E+04
      4.978  0.0000E+00  0.1296E+04
      5.088  0.0000E+00  0.1296E+04
      5.199  0.0000E+00  0.1296E+04
      5.309  0.0000E+00  0.1296E+04
      5.420  0.0000E+00  0.1296E+04
      5.530  0.0000E+00  0.1296E+04
      5.641  0.0000E+00  0.1296E+04
      5.751  0.0000E+00  0.1296E+04
      5.862  0.0000E+00  0.1296E+04
      5.972  0.0000E+00  0.1296E+04
      6.083  0.0000E+00  0.1296E+04
      6.193  0.0000E+00  0.1296E+04
      6.304  0.0000E+00  0.1296E+04
      6.414  0.0000E+00  0.1296E+04
      6.525  0.1542E-10  0.1296E+04
      6.635  0.1006E-03  0.1296E+04
      6.746  0.1835E+00  0.1296E+04
      6.856  0.1972E+01  0.1296E+04
      6.967  0.3716E+01  0.1297E+04
      7.078  0.5002E+01  0.1297E+04
      7.188  0.6144E+01  0.1298E+04
      7.299  0.7248E+01  0.1299E+04
      7.409  0.8304E+01  0.1300E+04
      7.520  0.9358E+01  0.1301E+04
      7.630  0.1053E+02  0.1302E+04
      7.741  0.1177E+02  0.1303E+04
      7.851  0.1285E+02  0.1305E+04
      7.962  0.1396E+02  0.1306E+04
      8.072  0.1550E+02  0.1308E+04
      8.183  0.1696E+02  0.1310E+04
      8.293  0.1813E+02  0.1312E+04
      8.404  0.1997E+02  0.1314E+04
      8.514  0.2213E+02  0.1316E+04
      8.625  0.2388E+02  0.1319E+04
      8.735  0.2666E+02  0.1322E+04
      8.846  0.3179E+02  0.1325E+04
      8.956  0.3398E+02  0.1329E+04
      9.067  0.3308E+02  0.1333E+04
      9.177  0.3246E+02  0.1336E+04
      9.288  0.3185E+02  0.1340E+04
      9.398  0.3097E+02  0.1343E+04
      9.509  0.3178E+02  0.1347E+04
      9.619  0.3560E+02  0.1351E+04
      9.730  0.4698E+02  0.1356E+04
      9.841  0.7855E+02  0.1365E+04
      9.951  0.1293E+03  0.1379E+04
     10.062  0.1635E+03  0.1397E+04
     10.172  0.1358E+03  0.1412E+04
     10.283  0.1216E+03  0.1425E+04
     10.393  0.1328E+03  0.1440E+04
     10.504  0.1797E+03  0.1460E+04
     10.614  0.2546E+03  0.1488E+04
     10.725  0.1985E+03  0.1510E+04
     10.835  0.1545E+03  0.1527E+04
     10.946  0.1078E+03  0.1539E+04
     11.056  0.1069E+03  0.1551E+04
     11.167  0.9752E+02  0.1562E+04
     11.277  0.5146E+02  0.1567E+04
     11.388  0.5709E+01  0.1568E+04
     11.498  0.9349E-02  0.1568E+04
     11.609  0.1872E-07  0.1568E+04
     11.719  0.0000E+00  0.1568E+04
     11.830  0.0000E+00  0.1568E+04
     11.940  0.0000E+00  0.1568E+04
     12.051  0.0000E+00  0.1568E+04
     12.161  0.0000E+00  0.1568E+04
     12.272  0.0000E+00  0.1568E+04
     12.383  0.0000E+00  0.1568E+04
     12.493  0.0000E+00  0.1568E+04
     12.604  0.0000E+00  0.1568E+04
     12.714  0.0000E+00  0.1568E+04
     12.825  0.0000E+00  0.1568E+04
