  243  243    1    1
  0.1311381E+02  0.1499190E-08  0.1499190E-08  0.1637160E-08  0.5000000E-15
  1.000000000000000E-004
  CAR 
 (Si O2)81  (P1) ~ Ciellie_MCM41 (MD     
   1296    133    784
 
  0.0000000E+00  0.0000000E+00  0.0000000E+00  0.5787037E-03
    1      -18.824440
    2      -18.615614
    3      -18.615612
    4      -18.536828
    5      -18.536820
    6      -18.536770
    7      -18.536652
    8      -18.536601
    9      -18.536593
   10      -18.407093
   11      -18.407093
   12      -18.407049
   13      -18.407047
   14      -18.407014
   15      -18.407012
   16      -18.406923
   17      -18.406921
   18      -18.406888
   19      -18.406886
   20      -18.406840
   21      -18.406839
   22      -18.279489
   23      -18.279487
   24      -18.279486
   25      -18.279484
   26      -18.116349
   27      -18.116347
   28      -18.116315
   29      -18.116312
   30      -18.045032
   31      -18.045032
   32      -17.949325
   33      -17.949324
   34      -17.949273
   35      -17.949273
   36      -17.949202
   37      -17.949200
   38      -17.949191
   39      -17.949189
   40      -17.949121
   41      -17.949120
   42      -17.949067
   43      -17.949066
   44      -17.799748
   45      -17.799748
   46      -17.799745
   47      -17.799745
   48      -17.672607
   49      -17.672603
   50      -17.672590
   51      -17.672332
   52      -17.672329
   53      -17.672318
   54      -17.457539
   55      -17.457538
   56      -17.457536
   57      -17.457535
   58      -17.313547
   59      -17.313543
   60      -17.288646
   61      -17.288601
   62      -17.275989
   63      -17.275877
   64      -17.275853
   65      -17.275761
   66      -17.275742
   67      -17.275633
   68      -17.136332
   69      -17.136332
   70      -17.136331
   71      -17.136330
   72      -17.136274
   73      -17.136272
   74      -17.136269
   75      -17.136267
   76      -17.136212
   77      -17.136212
   78      -17.136211
   79      -17.136210
   80      -16.692158
   81      -16.692155
   82      -16.666311
   83      -16.666308
   84      -16.666308
   85      -16.666305
   86      -16.658513
   87      -16.654971
   88      -16.654970
   89      -16.654956
   90      -16.654955
   91      -16.653509
   92      -16.653508
   93      -16.653462
   94      -16.653460
   95      -16.653381
   96      -16.653378
   97      -16.653320
   98      -16.653317
   99      -16.653237
  100      -16.653235
  101      -16.653175
  102      -16.653173
  103      -16.651897
  104      -16.651892
  105      -16.651891
  106      -16.651830
  107      -16.651827
  108      -16.651823
  109      -16.647260
  110      -16.647257
  111      -16.646835
  112      -16.646833
  113      -16.645733
  114      -16.645730
  115      -16.645707
  116      -16.645705
  117      -16.645694
  118      -16.645691
  119      -16.645658
  120      -16.645656
  121      -16.645635
  122      -16.645631
  123      -16.645583
  124      -16.645579
  125      -16.644830
  126      -16.644826
  127      -16.644789
  128      -16.644695
  129      -16.644651
  130      -16.644640
  131      -16.639535
  132      -16.639533
  133      -16.639492
  134      -16.639488
  135      -16.638869
  136      -16.638869
  137      -16.638866
  138      -16.638865
  139      -16.635629
  140      -16.635516
  141      -16.635488
  142      -16.635399
  143      -16.635374
  144      -16.635253
  145      -16.627610
  146      -16.627610
  147      -16.626810
  148      -16.626810
  149      -16.626716
  150      -16.626716
  151      -16.626701
  152      -16.626698
  153      -16.626598
  154      -16.626595
  155      -16.626584
  156      -16.626583
  157      -16.626473
  158      -16.626473
  159      -16.621863
  160      -16.621860
  161      -16.620447
  162      -16.620394
  163       -8.885781
  164       -8.885778
  165       -8.192272
  166       -8.192271
  167       -8.192242
  168       -8.192241
  169       -8.192205
  170       -8.192202
  171       -8.192179
  172       -8.192176
  173       -8.192139
  174       -8.192139
  175       -8.192110
  176       -8.192109
  177       -8.077989
  178       -8.077988
  179       -7.956823
  180       -7.956821
  181       -7.956799
  182       -7.956749
  183       -7.956729
  184       -7.956718
  185       -7.826445
  186       -7.826416
  187       -7.673559
  188       -7.673558
  189       -7.673558
  190       -7.673556
  191       -7.181718
  192       -7.181717
  193       -7.181705
  194       -7.181703
  195       -7.181698
  196       -7.181694
  197       -6.765240
  198       -6.765240
  199       -6.765237
  200       -6.765237
  201       -6.656569
  202       -6.656569
  203       -6.656563
  204       -6.656562
  205       -6.656523
  206       -6.656522
  207       -6.656480
  208       -6.656480
  209       -6.656440
  210       -6.656438
  211       -6.656438
  212       -6.656438
  213       -6.330850
  214       -6.330850
  215       -6.159306
  216       -6.159302
  217       -6.159272
  218       -6.159268
  219       -6.156278
  220       -6.156275
  221       -6.156275
  222       -6.156272
  223       -5.718677
  224       -5.718676
  225       -5.718669
  226       -5.718668
  227       -5.718626
  228       -5.718626
  229       -5.718625
  230       -5.718624
  231       -5.718592
  232       -5.718591
  233       -5.718586
  234       -5.718584
  235       -5.149678
  236       -5.149676
  237       -5.145489
  238       -5.145487
  239       -5.102141
  240       -5.102141
  241       -5.055116
  242       -5.053414
  243       -5.053413
  244       -5.053409
  245       -5.053393
  246       -5.053392
  247       -5.053390
  248       -5.035673
  249       -5.035645
  250       -5.035603
  251       -5.035576
  252       -5.035566
  253       -5.035496
  254       -4.937720
  255       -4.937719
  256       -4.937690
  257       -4.937689
  258       -4.937685
  259       -4.937684
  260       -4.937641
  261       -4.937640
  262       -4.937639
  263       -4.937638
  264       -4.937601
  265       -4.937599
  266       -4.869824
  267       -4.869800
  268       -4.869789
  269       -4.869755
  270       -4.869752
  271       -4.869738
  272       -4.842331
  273       -4.842329
  274       -4.842306
  275       -4.842304
  276       -4.822923
  277       -4.822923
  278       -4.822923
  279       -4.822923
  280       -4.725680
  281       -4.633074
  282       -4.633068
  283       -4.509568
  284       -4.509568
  285       -4.509558
  286       -4.509558
  287       -4.509523
  288       -4.509522
  289       -4.509521
  290       -4.509520
  291       -4.509482
  292       -4.509481
  293       -4.509470
  294       -4.509470
  295       -4.443737
  296       -4.443734
  297       -4.443732
  298       -4.443730
  299       -4.269723
  300       -4.269722
  301       -4.269722
  302       -4.269721
  303       -4.253434
  304       -4.253433
  305       -4.253399
  306       -4.253399
  307       -4.253393
  308       -4.253391
  309       -4.253388
  310       -4.253387
  311       -4.253383
  312       -4.253382
  313       -4.253343
  314       -4.253342
  315       -4.106084
  316       -4.106064
  317       -4.106054
  318       -4.106041
  319       -4.106032
  320       -4.106022
  321       -4.003768
  322       -4.003766
  323       -3.855228
  324       -3.855226
  325       -2.538066
  326       -2.538064
  327       -2.538063
  328       -2.538061
  329       -2.481726
  330       -2.481725
  331       -2.481708
  332       -2.481708
  333       -2.481648
  334       -2.481648
  335       -2.481643
  336       -2.481643
  337       -2.481583
  338       -2.481583
  339       -2.481566
  340       -2.481566
  341       -2.456134
  342       -2.456117
  343       -2.456116
  344       -2.456040
  345       -2.456036
  346       -2.456024
  347       -2.322546
  348       -2.322545
  349       -2.322425
  350       -2.322424
  351       -2.283482
  352       -2.283482
  353       -2.283468
  354       -2.283467
  355       -2.283423
  356       -2.283423
  357       -2.283365
  358       -2.283365
  359       -2.283326
  360       -2.283325
  361       -2.283311
  362       -2.283311
  363       -2.223854
  364       -2.216315
  365       -2.216315
  366       -2.216314
  367       -2.216314
  368       -2.185523
  369       -2.185502
  370       -2.185489
  371       -2.185412
  372       -2.185386
  373       -2.185365
  374       -2.180930
  375       -2.180929
  376       -2.179856
  377       -2.179843
  378       -2.147994
  379       -2.147994
  380       -2.147992
  381       -2.147992
  382       -2.020178
  383       -2.020176
  384       -2.014379
  385       -2.014378
  386       -1.892961
  387       -1.892958
  388       -1.889355
  389       -1.889290
  390       -1.889264
  391       -1.889263
  392       -1.889245
  393       -1.889175
  394       -1.832814
  395       -1.832812
  396       -1.832783
  397       -1.832781
  398       -1.832760
  399       -1.832758
  400       -1.832725
  401       -1.832724
  402       -1.832681
  403       -1.832679
  404       -1.832621
  405       -1.832619
  406       -1.829797
  407       -1.680079
  408       -1.680050
  409       -1.679906
  410       -1.679880
  411       -1.679836
  412       -1.679780
  413       -1.648132
  414       -1.648131
  415       -1.648107
  416       -1.648107
  417       -1.648085
  418       -1.648084
  419       -1.648080
  420       -1.648079
  421       -1.648051
  422       -1.648050
  423       -1.648036
  424       -1.648036
  425       -1.555953
  426       -1.555952
  427       -1.497233
  428       -1.497232
  429       -1.497174
  430       -1.497173
  431       -1.497171
  432       -1.497170
  433       -1.497162
  434       -1.497161
  435       -1.497161
  436       -1.497161
  437       -1.497108
  438       -1.497108
  439       -1.484670
  440       -1.484670
  441       -1.406576
  442       -1.406575
  443       -1.373016
  444       -1.373013
  445       -1.373007
  446       -1.373005
  447       -1.371084
  448       -1.371048
  449       -1.370971
  450       -1.370965
  451       -1.370939
  452       -1.370886
  453       -1.334392
  454       -1.334392
  455       -1.334392
  456       -1.334391
  457       -1.310549
  458       -1.310548
  459       -1.310513
  460       -1.310513
  461       -1.275164
  462       -1.275164
  463       -1.275163
  464       -1.275163
  465       -1.223636
  466       -1.223622
  467       -1.223590
  468       -1.223573
  469       -1.223520
  470       -1.223510
  471       -1.148846
  472       -1.148846
  473       -1.120755
  474       -1.120755
  475       -1.044597
  476       -1.044592
  477       -1.041193
  478       -1.041191
  479       -0.982331
  480       -0.982323
  481       -0.982320
  482       -0.982320
  483       -0.982102
  484       -0.982097
  485       -0.981506
  486       -0.973790
  487       -0.973400
  488       -0.929856
  489       -0.929854
  490       -0.929830
  491       -0.929829
  492       -0.929776
  493       -0.929775
  494       -0.929742
  495       -0.929741
  496       -0.929719
  497       -0.929718
  498       -0.929645
  499       -0.929644
  500       -0.866976
  501       -0.866975
  502       -0.866949
  503       -0.866949
  504       -0.866916
  505       -0.866915
  506       -0.866881
  507       -0.866881
  508       -0.866863
  509       -0.866862
  510       -0.866840
  511       -0.866839
  512       -0.695506
  513       -0.695501
  514       -0.695303
  515       -0.695298
  516       -0.656493
  517       -0.656491
  518       -0.656433
  519       -0.656432
  520       -0.656419
  521       -0.656419
  522       -0.656342
  523       -0.656342
  524       -0.656342
  525       -0.656341
  526       -0.656286
  527       -0.656285
  528       -0.631114
  529       -0.631114
  530       -0.631110
  531       -0.631110
  532       -0.445151
  533       -0.445113
  534       -0.445042
  535       -0.444996
  536       -0.444987
  537       -0.444872
  538       -0.377971
  539       -0.377971
  540       -0.377968
  541       -0.377968
  542       -0.326659
  543       -0.326657
  544       -0.282540
  545       -0.282522
  546       -0.282332
  547       -0.282314
  548       -0.282304
  549       -0.282282
  550       -0.275795
  551       -0.275794
  552       -0.275785
  553       -0.275785
  554       -0.225902
  555       -0.225672
  556       -0.138900
  557       -0.138899
  558       -0.138885
  559       -0.138885
  560       -0.138879
  561       -0.138878
  562       -0.138857
  563       -0.138856
  564       -0.138787
  565       -0.138786
  566       -0.138765
  567       -0.138764
  568       -0.069768
  569       -0.069735
  570       -0.069716
  571       -0.069650
  572       -0.069645
  573       -0.069606
  574        0.078618
  575        0.078618
  576        0.078622
  577        0.078622
  578        0.127901
  579        0.127904
  580        0.127913
  581        0.127916
  582        0.128041
  583        0.128044
  584        0.128051
  585        0.128054
  586        0.128087
  587        0.128089
  588        0.128109
  589        0.128111
  590        0.143669
  591        0.143670
  592        0.143675
  593        0.143675
  594        0.249876
  595        0.249876
  596        0.249885
  597        0.249885
  598        0.249906
  599        0.249906
  600        0.249911
  601        0.249911
  602        0.249935
  603        0.249936
  604        0.249943
  605        0.249944
  606        0.311210
  607        0.311216
  608        0.311416
  609        0.311420
  610        0.318722
  611        0.318737
  612        0.415516
  613        0.415518
  614        0.415524
  615        0.415525
  616        0.436924
  617        0.436927
  618        0.460109
  619        0.460110
  620        0.460132
  621        0.460133
  622        0.460136
  623        0.460139
  624        0.612899
  625        0.662087
  626        0.662088
  627        0.662118
  628        0.662119
  629        0.662128
  630        0.662129
  631        0.662158
  632        0.662159
  633        0.662192
  634        0.662194
  635        0.662248
  636        0.662250
  637        0.728087
  638        0.728092
  639        0.728148
  640        0.728162
  641        0.728178
  642        0.728254
  643        0.730296
  644        0.730297
  645        0.752552
  646        0.752560
  647        0.796658
  648        0.796658
  649        6.740177
  650        7.687819
  651        7.687821
  652        8.062478
  653        8.062549
  654        8.062572
  655        8.062676
  656        8.062829
  657        8.062846
  658        8.747818
  659        8.747820
  660        8.747890
  661        8.747892
  662        8.747895
  663        8.747897
  664        8.748008
  665        8.748010
  666        8.748146
  667        8.748148
  668        8.748151
  669        8.748153
  670        9.465055
  671        9.465056
  672        9.551317
  673        9.551320
  674        9.552033
  675        9.552035
  676        9.552755
  677        9.552787
  678        9.873516
  679        9.873516
  680        9.873537
  681        9.873537
  682        9.906609
  683        9.906651
  684        9.906772
  685        9.906829
  686        9.906868
  687        9.906942
  688        9.940639
  689        9.940640
  690        9.940645
  691        9.940646
  692       10.006409
  693       10.006874
  694       10.131455
  695       10.131455
  696       10.131470
  697       10.131470
  698       10.131580
  699       10.131581
  700       10.131581
  701       10.131581
  702       10.131685
  703       10.131686
  704       10.131714
  705       10.131715
  706       10.202429
  707       10.202435
  708       10.302012
  709       10.302574
  710       10.343254
  711       10.343255
  712       10.343275
  713       10.343276
  714       10.343374
  715       10.343375
  716       10.343416
  717       10.343417
  718       10.343534
  719       10.343535
  720       10.343541
  721       10.343542
  722       10.389610
  723       10.389610
  724       10.489660
  725       10.489688
  726       10.489707
  727       10.489746
  728       10.489805
  729       10.489875
  730       10.507942
  731       10.507957
  732       10.542340
  733       10.542346
  734       10.542400
  735       10.542423
  736       10.542664
  737       10.542675
  738       10.542718
  739       10.542722
  740       10.542840
  741       10.542854
  742       10.542939
  743       10.542951
  744       10.570481
  745       10.570496
  746       10.570501
  747       10.570520
  748       10.570536
  749       10.570639
  750       10.623443
  751       10.623447
  752       10.623459
  753       10.623482
  754       10.772603
  755       10.772623
  756       10.772664
  757       10.772699
  758       10.772733
  759       10.772740
  760       10.772763
  761       10.772797
  762       10.772836
  763       10.772872
  764       10.773158
  765       10.774337
  766       10.825788
  767       10.825848
  768       10.826335
  769       10.827817
  770       10.890516
  771       10.890676
  772       10.890905
  773       10.891123
  774       10.891735
  775       10.895821
  776       11.000401
  777       11.003301
  778       11.016571
  779       11.024441
  780       11.064657
  781       11.066422
  782       11.069785
  783       11.077977
  784       11.121365
 
  0.8333333E-01  0.8568687E-17 -0.2553591E-24  0.3472222E-02
    1      -18.821725
    2      -18.613818
    3      -18.613816
    4      -18.577720
    5      -18.555686
    6      -18.555677
    7      -18.514291
    8      -18.514279
    9      -18.495230
   10      -18.432061
   11      -18.432058
   12      -18.418515
   13      -18.418515
   14      -18.418499
   15      -18.418496
   16      -18.394288
   17      -18.394288
   18      -18.394267
   19      -18.394263
   20      -18.383821
   21      -18.383817
   22      -18.280605
   23      -18.280602
   24      -18.280599
   25      -18.280596
   26      -18.159796
   27      -18.159768
   28      -18.073872
   29      -18.073841
   30      -18.044463
   31      -18.044462
   32      -17.964695
   33      -17.964694
   34      -17.956578
   35      -17.956577
   36      -17.956560
   37      -17.956557
   38      -17.940645
   39      -17.940643
   40      -17.940620
   41      -17.940616
   42      -17.932837
   43      -17.932835
   44      -17.802875
   45      -17.802874
   46      -17.802867
   47      -17.802866
   48      -17.723843
   49      -17.699681
   50      -17.699667
   51      -17.648132
   52      -17.648124
   53      -17.620960
   54      -17.452241
   55      -17.452239
   56      -17.452235
   57      -17.452235
   58      -17.313307
   59      -17.313301
   60      -17.291817
   61      -17.288448
   62      -17.276993
   63      -17.276936
   64      -17.276891
   65      -17.275912
   66      -17.275878
   67      -17.275182
   68      -17.186314
   69      -17.186312
   70      -17.163595
   71      -17.163593
   72      -17.163557
   73      -17.163554
   74      -17.112633
   75      -17.112631
   76      -17.112599
   77      -17.112596
   78      -17.084610
   79      -17.084608
   80      -16.698244
   81      -16.698242
   82      -16.665791
   83      -16.665788
   84      -16.665786
   85      -16.665783
   86      -16.658478
   87      -16.655874
   88      -16.655871
   89      -16.654954
   90      -16.654953
   91      -16.654886
   92      -16.654885
   93      -16.654830
   94      -16.654828
   95      -16.654760
   96      -16.654758
   97      -16.652775
   98      -16.652450
   99      -16.652447
  100      -16.652416
  101      -16.652412
  102      -16.652269
  103      -16.652260
  104      -16.651889
  105      -16.651702
  106      -16.651690
  107      -16.650861
  108      -16.650858
  109      -16.648033
  110      -16.648027
  111      -16.647224
  112      -16.647220
  113      -16.646967
  114      -16.646738
  115      -16.646737
  116      -16.646663
  117      -16.646659
  118      -16.645837
  119      -16.645772
  120      -16.645373
  121      -16.645371
  122      -16.645111
  123      -16.645111
  124      -16.645038
  125      -16.645034
  126      -16.644102
  127      -16.644098
  128      -16.643975
  129      -16.643913
  130      -16.642886
  131      -16.640266
  132      -16.640232
  133      -16.639423
  134      -16.639385
  135      -16.638523
  136      -16.638523
  137      -16.638518
  138      -16.638518
  139      -16.636947
  140      -16.636161
  141      -16.636123
  142      -16.634540
  143      -16.634501
  144      -16.633753
  145      -16.628267
  146      -16.628264
  147      -16.627697
  148      -16.627696
  149      -16.627559
  150      -16.627559
  151      -16.627511
  152      -16.627511
  153      -16.626234
  154      -16.626232
  155      -16.626215
  156      -16.626213
  157      -16.625325
  158      -16.625323
  159      -16.622415
  160      -16.622412
  161      -16.620703
  162      -16.620585
  163       -8.879822
  164       -8.879819
  165       -8.280373
  166       -8.280370
  167       -8.232969
  168       -8.232966
  169       -8.232960
  170       -8.232956
  171       -8.145962
  172       -8.145960
  173       -8.145950
  174       -8.145946
  175       -8.106756
  176       -8.106753
  177       -8.076543
  178       -8.076542
  179       -7.968478
  180       -7.964365
  181       -7.964356
  182       -7.951853
  183       -7.951845
  184       -7.943633
  185       -7.827708
  186       -7.820736
  187       -7.679883
  188       -7.679882
  189       -7.679878
  190       -7.679876
  191       -7.261050
  192       -7.216014
  193       -7.215999
  194       -7.138052
  195       -7.138034
  196       -7.106562
  197       -6.766118
  198       -6.766118
  199       -6.766112
  200       -6.766111
  201       -6.701399
  202       -6.701397
  203       -6.678895
  204       -6.678894
  205       -6.678891
  206       -6.678889
  207       -6.634639
  208       -6.634638
  209       -6.634637
  210       -6.634636
  211       -6.612699
  212       -6.612698
  213       -6.333941
  214       -6.333940
  215       -6.270238
  216       -6.270210
  217       -6.148079
  218       -6.148076
  219       -6.148075
  220       -6.148072
  221       -6.049000
  222       -6.048969
  223       -5.752875
  224       -5.752873
  225       -5.740677
  226       -5.740676
  227       -5.740634
  228       -5.740632
  229       -5.704003
  230       -5.704002
  231       -5.703963
  232       -5.703961
  233       -5.680074
  234       -5.680073
  235       -5.182022
  236       -5.182020
  237       -5.147265
  238       -5.147263
  239       -5.109607
  240       -5.109558
  241       -5.105459
  242       -5.071832
  243       -5.071820
  244       -5.065621
  245       -5.065620
  246       -5.053889
  247       -5.038378
  248       -5.033165
  249       -5.010837
  250       -5.010802
  251       -4.999781
  252       -4.992635
  253       -4.992570
  254       -4.955395
  255       -4.955393
  256       -4.944581
  257       -4.944580
  258       -4.944542
  259       -4.944540
  260       -4.928152
  261       -4.928151
  262       -4.928112
  263       -4.928110
  264       -4.922488
  265       -4.922486
  266       -4.870899
  267       -4.870277
  268       -4.870237
  269       -4.869231
  270       -4.869192
  271       -4.868332
  272       -4.846130
  273       -4.846109
  274       -4.840862
  275       -4.840841
  276       -4.823703
  277       -4.823702
  278       -4.823700
  279       -4.823700
  280       -4.735534
  281       -4.636704
  282       -4.620289
  283       -4.549377
  284       -4.549376
  285       -4.527925
  286       -4.527924
  287       -4.527917
  288       -4.527915
  289       -4.490992
  290       -4.490992
  291       -4.490984
  292       -4.490983
  293       -4.475308
  294       -4.475307
  295       -4.442896
  296       -4.442893
  297       -4.442891
  298       -4.442888
  299       -4.277162
  300       -4.277159
  301       -4.270896
  302       -4.270894
  303       -4.270894
  304       -4.270893
  305       -4.266486
  306       -4.266483
  307       -4.266473
  308       -4.266471
  309       -4.241430
  310       -4.241427
  311       -4.241418
  312       -4.241416
  313       -4.227042
  314       -4.227039
  315       -4.154265
  316       -4.127928
  317       -4.127899
  318       -4.081980
  319       -4.081948
  320       -4.062737
  321       -4.006204
  322       -4.006201
  323       -3.858424
  324       -3.858419
  325       -2.536926
  326       -2.536924
  327       -2.536924
  328       -2.536921
  329       -2.494374
  330       -2.494373
  331       -2.488914
  332       -2.488913
  333       -2.488910
  334       -2.488910
  335       -2.474079
  336       -2.474079
  337       -2.474073
  338       -2.474073
  339       -2.464461
  340       -2.464460
  341       -2.456833
  342       -2.456023
  343       -2.456015
  344       -2.453427
  345       -2.453422
  346       -2.450804
  347       -2.334911
  348       -2.334810
  349       -2.326788
  350       -2.326788
  351       -2.311869
  352       -2.311763
  353       -2.305021
  354       -2.305021
  355       -2.304990
  356       -2.304989
  357       -2.260707
  358       -2.260706
  359       -2.260686
  360       -2.260685
  361       -2.237363
  362       -2.237362
  363       -2.231316
  364       -2.231314
  365       -2.231253
  366       -2.231251
  367       -2.221937
  368       -2.202303
  369       -2.194202
  370       -2.194185
  371       -2.189204
  372       -2.186252
  373       -2.186251
  374       -2.181440
  375       -2.181401
  376       -2.178296
  377       -2.175588
  378       -2.131058
  379       -2.131056
  380       -2.130985
  381       -2.130983
  382       -2.019072
  383       -2.019058
  384       -2.015304
  385       -2.015302
  386       -1.932056
  387       -1.907080
  388       -1.907056
  389       -1.892734
  390       -1.892731
  391       -1.864832
  392       -1.864789
  393       -1.845469
  394       -1.839168
  395       -1.839165
  396       -1.839045
  397       -1.839043
  398       -1.837914
  399       -1.837912
  400       -1.833511
  401       -1.833508
  402       -1.833403
  403       -1.833401
  404       -1.828136
  405       -1.828134
  406       -1.819195
  407       -1.735209
  408       -1.710162
  409       -1.709966
  410       -1.672463
  411       -1.672462
  412       -1.661219
  413       -1.661217
  414       -1.661179
  415       -1.661179
  416       -1.651494
  417       -1.651309
  418       -1.636048
  419       -1.636047
  420       -1.636040
  421       -1.636039
  422       -1.624809
  423       -1.624808
  424       -1.616709
  425       -1.552359
  426       -1.552357
  427       -1.500011
  428       -1.500009
  429       -1.494907
  430       -1.494906
  431       -1.494889
  432       -1.494887
  433       -1.492946
  434       -1.492945
  435       -1.491622
  436       -1.491621
  437       -1.491594
  438       -1.491593
  439       -1.483127
  440       -1.483125
  441       -1.421017
  442       -1.421016
  443       -1.394490
  444       -1.384976
  445       -1.384912
  446       -1.381885
  447       -1.381883
  448       -1.381788
  449       -1.381785
  450       -1.363560
  451       -1.363474
  452       -1.351564
  453       -1.343641
  454       -1.343639
  455       -1.343569
  456       -1.343568
  457       -1.330224
  458       -1.330194
  459       -1.310206
  460       -1.310205
  461       -1.260333
  462       -1.256189
  463       -1.256188
  464       -1.256151
  465       -1.256148
  466       -1.240671
  467       -1.240600
  468       -1.204976
  469       -1.204919
  470       -1.188017
  471       -1.140947
  472       -1.140947
  473       -1.118316
  474       -1.118315
  475       -1.036862
  476       -1.036859
  477       -1.024202
  478       -1.024154
  479       -0.984900
  480       -0.983269
  481       -0.981530
  482       -0.981329
  483       -0.979483
  484       -0.978577
  485       -0.978272
  486       -0.978032
  487       -0.972706
  488       -0.953030
  489       -0.953028
  490       -0.941718
  491       -0.941716
  492       -0.941585
  493       -0.941584
  494       -0.927790
  495       -0.927790
  496       -0.927788
  497       -0.927787
  498       -0.922987
  499       -0.922986
  500       -0.880674
  501       -0.880673
  502       -0.877236
  503       -0.877234
  504       -0.877104
  505       -0.877103
  506       -0.854895
  507       -0.854895
  508       -0.854857
  509       -0.854857
  510       -0.837479
  511       -0.837478
  512       -0.733636
  513       -0.733439
  514       -0.703478
  515       -0.703477
  516       -0.674928
  517       -0.674927
  518       -0.674877
  519       -0.674876
  520       -0.657701
  521       -0.657546
  522       -0.633905
  523       -0.633904
  524       -0.633885
  525       -0.633885
  526       -0.629792
  527       -0.629791
  528       -0.629697
  529       -0.629696
  530       -0.612316
  531       -0.612314
  532       -0.459792
  533       -0.459680
  534       -0.452138
  535       -0.450606
  536       -0.450492
  537       -0.435051
  538       -0.384743
  539       -0.384743
  540       -0.384729
  541       -0.384728
  542       -0.322870
  543       -0.322867
  544       -0.292553
  545       -0.278153
  546       -0.277973
  547       -0.271169
  548       -0.267460
  549       -0.267243
  550       -0.266353
  551       -0.266353
  552       -0.266338
  553       -0.266337
  554       -0.229733
  555       -0.227716
  556       -0.165765
  557       -0.165764
  558       -0.149564
  559       -0.149562
  560       -0.149449
  561       -0.149448
  562       -0.147173
  563       -0.131301
  564       -0.131299
  565       -0.131210