       N       E                     dE             d eps       ncg     rms          rms(c)
DAV:   1     0.820621914415E+04    0.82062E+04   -0.59853E+05210064   0.125E+03
DAV:   2    -0.147452144429E+04   -0.96807E+04   -0.94895E+04244416   0.336E+02
DAV:   3    -0.217406067449E+04   -0.69954E+03   -0.69655E+03243672   0.982E+01
DAV:   4    -0.218635291606E+04   -0.12292E+02   -0.12262E+02247176   0.136E+01
DAV:   5    -0.218664516175E+04   -0.29225E+00   -0.29185E+00243536   0.193E+00    0.140E+02
DAV:   6    -0.191719141324E+04    0.26945E+03   -0.11203E+03232112   0.360E+01    0.652E+01
DAV:   7    -0.191560742398E+04    0.15840E+01   -0.32358E+01264536   0.560E+00    0.233E+01
DAV:   8    -0.191529572862E+04    0.31170E+00   -0.19544E+00241856   0.193E+00    0.877E+00
DAV:   9    -0.191553296907E+04   -0.23724E+00   -0.79121E-01233184   0.122E+00    0.150E+00
DAV:  10    -0.191558818442E+04   -0.55215E-01   -0.64509E-02236216   0.289E-01    0.377E-01
DAV:  11    -0.191559087489E+04   -0.26905E-02   -0.11086E-02241656   0.135E-01    0.608E-02
DAV:  12    -0.191559112843E+04   -0.25354E-03   -0.33892E-04243624   0.220E-02    0.587E-02
DAV:  13    -0.191559125520E+04   -0.12677E-03   -0.13520E-04236336   0.135E-02    0.223E-02
DAV:  14    -0.191559126839E+04   -0.13190E-04   -0.19334E-05164600   0.539E-03    0.500E-03
DAV:  15    -0.191559126787E+04    0.52576E-06   -0.24233E-06151592   0.186E-03
   1 F= -.19155913E+04 E0= -.19155913E+04  d E =-.566116E-19
