<?xml version="1.0" encoding="ISO-8859-1"?>
<modeling>
 <generator>
  <i name="program" type="string">vasp </i>
  <i name="version" type="string">5.3.5  </i>
  <i name="subversion" type="string">31Mar14 (build Oct 18 2016 11:10:54) complex                          parallel </i>
  <i name="platform" type="string">LinuxIFC </i>
  <i name="date" type="string">2017 10 11 </i>
  <i name="time" type="string">17:08:25 </i>
 </generator>
 <incar>
  <i type="string" name="SYSTEM"> (Si O2)81  (P1) ~ Ciellie_MCM41 (MD</i>
  <i type="string" name="PREC">accurate</i>
  <i type="string" name="ALGO"> Normal (blocked Davidson)</i>
  <i type="int" name="ICHARG">     2</i>
  <i type="int" name="NELMIN">     2</i>
  <i type="int" name="IBRION">    -1</i>
  <i name="EDIFF">      0.00001000</i>
  <i type="int" name="ISIF">     2</i>
  <i name="ENCUT">    400.00000000</i>
  <i type="int" name="NGXF">    98</i>
  <i type="int" name="NGYF">    98</i>
  <i type="int" name="NGZF">   108</i>
  <i type="string" name="LREAL"> Auto</i>
  <i type="int" name="ISMEAR">     0</i>
  <i name="SIGMA">      0.05000000</i>
  <i type="logical" name="LWAVE"> F  </i>
  <i type="logical" name="LCHARG"> F  </i>
 </incar>
 <kpoints>
  <generation param="Gamma">
   <v type="int" name="divisions">      12       12       12 </v>
   <v name="usershift">      0.00000000       0.00000000       0.00000000 </v>
   <v name="genvec1">      0.08333333      -0.00000000       0.00000000 </v>
   <v name="genvec2">      0.00000000       0.08333333       0.00000000 </v>
   <v name="genvec3">      0.00000000       0.00000000       0.08333333 </v>
   <v name="shift">      0.00000000       0.00000000       0.00000000 </v>
  </generation>
  <varray name="kpointlist" >
   <v>       0.00000000       0.00000000       0.00000000 </v>
   <v>       0.08333333       0.00000000      -0.00000000 </v>
   <v>       0.16666667       0.00000000      -0.00000000 </v>
   <v>       0.25000000       0.00000000       0.00000000 </v>
   <v>       0.33333333       0.00000000      -0.00000000 </v>
   <v>       0.41666667       0.00000000       0.00000000 </v>
   <v>       0.50000000       0.00000000       0.00000000 </v>
   <v>       0.08333333       0.08333333       0.00000000 </v>
   <v>       0.16666667       0.08333333       0.00000000 </v>
   <v>       0.25000000       0.08333333       0.00000000 </v>
   <v>       0.33333333       0.08333333      -0.00000000 </v>
   <v>       0.41666667       0.08333333       0.00000000 </v>
   <v>       0.16666667       0.16666667      -0.00000000 </v>
   <v>       0.25000000       0.16666667      -0.00000000 </v>
   <v>       0.33333333       0.16666667      -0.00000000 </v>
   <v>       0.41666667       0.16666667       0.00000000 </v>
   <v>       0.25000000       0.25000000       0.00000000 </v>
   <v>       0.33333333       0.25000000       0.00000000 </v>
   <v>       0.33333333       0.33333333       0.00000000 </v>
   <v>       0.00000000       0.00000000       0.08333333 </v>
   <v>       0.08333333       0.00000000       0.08333333 </v>
   <v>       0.16666667       0.00000000       0.08333333 </v>
   <v>       0.25000000       0.00000000       0.08333333 </v>
   <v>       0.33333333       0.00000000       0.08333333 </v>
   <v>       0.41666667       0.00000000       0.08333333 </v>
   <v>       0.50000000       0.00000000       0.08333333 </v>
   <v>       0.08333333       0.08333333       0.08333333 </v>
   <v>       0.16666667       0.08333333       0.08333333 </v>
   <v>       0.25000000       0.08333333       0.08333333 </v>
   <v>       0.33333333       0.08333333       0.08333333 </v>
   <v>       0.41666667       0.08333333       0.08333333 </v>
   <v>       0.16666667       0.16666667       0.08333333 </v>
   <v>       0.25000000       0.16666667       0.08333333 </v>
   <v>       0.33333333       0.16666667       0.08333333 </v>
   <v>       0.41666667       0.16666667       0.08333333 </v>
   <v>       0.25000000       0.25000000       0.08333333 </v>
   <v>       0.33333333       0.25000000       0.08333333 </v>
   <v>       0.33333333       0.33333333       0.08333333 </v>
   <v>       0.00000000       0.00000000       0.16666667 </v>
   <v>       0.08333333       0.00000000       0.16666667 </v>
   <v>       0.16666667       0.00000000       0.16666667 </v>
   <v>       0.25000000       0.00000000       0.16666667 </v>
   <v>       0.33333333       0.00000000       0.16666667 </v>
   <v>       0.41666667       0.00000000       0.16666667 </v>
   <v>       0.50000000       0.00000000       0.16666667 </v>
   <v>       0.08333333       0.08333333       0.16666667 </v>
   <v>       0.16666667       0.08333333       0.16666667 </v>
   <v>       0.25000000       0.08333333       0.16666667 </v>
   <v>       0.33333333       0.08333333       0.16666667 </v>
   <v>       0.41666667       0.08333333       0.16666667 </v>
   <v>       0.16666667       0.16666667       0.16666667 </v>
   <v>       0.25000000       0.16666667       0.16666667 </v>
   <v>       0.33333333       0.16666667       0.16666667 </v>
   <v>       0.41666667       0.16666667       0.16666667 </v>
   <v>       0.25000000       0.25000000       0.16666667 </v>
   <v>       0.33333333       0.25000000       0.16666667 </v>
   <v>       0.33333333       0.33333333       0.16666667 </v>
   <v>       0.00000000       0.00000000       0.25000000 </v>
   <v>       0.08333333       0.00000000       0.25000000 </v>
   <v>       0.16666667       0.00000000       0.25000000 </v>
   <v>       0.25000000       0.00000000       0.25000000 </v>
   <v>       0.33333333       0.00000000       0.25000000 </v>
   <v>       0.41666667       0.00000000       0.25000000 </v>
   <v>       0.50000000       0.00000000       0.25000000 </v>
   <v>       0.08333333       0.08333333       0.25000000 </v>
   <v>       0.16666667       0.08333333       0.25000000 </v>
   <v>       0.25000000       0.08333333       0.25000000 </v>
   <v>       0.33333333       0.08333333       0.25000000 </v>
   <v>       0.41666667       0.08333333       0.25000000 </v>
   <v>       0.16666667       0.16666667       0.25000000 </v>
   <v>       0.25000000       0.16666667       0.25000000 </v>
   <v>       0.33333333       0.16666667       0.25000000 </v>
   <v>       0.41666667       0.16666667       0.25000000 </v>
   <v>       0.25000000       0.25000000       0.25000000 </v>
   <v>       0.33333333       0.25000000       0.25000000 </v>
   <v>       0.33333333       0.33333333       0.25000000 </v>
   <v>       0.00000000       0.00000000       0.33333333 </v>
   <v>       0.08333333       0.00000000       0.33333333 </v>
   <v>       0.16666667       0.00000000       0.33333333 </v>
   <v>       0.25000000       0.00000000       0.33333333 </v>
   <v>       0.33333333       0.00000000       0.33333333 </v>
   <v>       0.41666667       0.00000000       0.33333333 </v>
   <v>       0.50000000       0.00000000       0.33333333 </v>
   <v>       0.08333333       0.08333333       0.33333333 </v>
   <v>       0.16666667       0.08333333       0.33333333 </v>
   <v>       0.25000000       0.08333333       0.33333333 </v>
   <v>       0.33333333       0.08333333       0.33333333 </v>
   <v>       0.41666667       0.08333333       0.33333333 </v>
   <v>       0.16666667       0.16666667       0.33333333 </v>
   <v>       0.25000000       0.16666667       0.33333333 </v>
   <v>       0.33333333       0.16666667       0.33333333 </v>
   <v>       0.41666667       0.16666667       0.33333333 </v>
   <v>       0.25000000       0.25000000       0.33333333 </v>
   <v>       0.33333333       0.25000000       0.33333333 </v>
   <v>       0.33333333       0.33333333       0.33333333 </v>
   <v>       0.00000000       0.00000000       0.41666667 </v>
   <v>       0.08333333       0.00000000       0.41666667 </v>
   <v>       0.16666667       0.00000000       0.41666667 </v>
   <v>       0.25000000       0.00000000       0.41666667 </v>
   <v>       0.33333333       0.00000000       0.41666667 </v>
   <v>       0.41666667       0.00000000       0.41666667 </v>
   <v>       0.50000000       0.00000000       0.41666667 </v>
   <v>       0.08333333       0.08333333       0.41666667 </v>
   <v>       0.16666667       0.08333333       0.41666667 </v>
   <v>       0.25000000       0.08333333       0.41666667 </v>
   <v>       0.33333333       0.08333333       0.41666667 </v>
   <v>       0.41666667       0.08333333       0.41666667 </v>
   <v>       0.16666667       0.16666667       0.41666667 </v>
   <v>       0.25000000       0.16666667       0.41666667 </v>
   <v>       0.33333333       0.16666667       0.41666667 </v>
   <v>       0.41666667       0.16666667       0.41666667 </v>
   <v>       0.25000000       0.25000000       0.41666667 </v>
   <v>       0.33333333       0.25000000       0.41666667 </v>
   <v>       0.33333333       0.33333333       0.41666667 </v>
   <v>       0.00000000       0.00000000       0.50000000 </v>
   <v>       0.08333333       0.00000000       0.50000000 </v>
   <v>       0.16666667       0.00000000       0.50000000 </v>
   <v>       0.25000000       0.00000000       0.50000000 </v>
   <v>       0.33333333       0.00000000       0.50000000 </v>
   <v>       0.41666667       0.00000000       0.50000000 </v>
   <v>       0.50000000       0.00000000       0.50000000 </v>
   <v>       0.08333333       0.08333333       0.50000000 </v>
   <v>       0.16666667       0.08333333       0.50000000 </v>
   <v>       0.25000000       0.08333333       0.50000000 </v>
   <v>       0.33333333       0.08333333       0.50000000 </v>
   <v>       0.41666667       0.08333333       0.50000000 </v>
   <v>       0.16666667       0.16666667       0.50000000 </v>
   <v>       0.25000000       0.16666667       0.50000000 </v>
   <v>       0.33333333       0.16666667       0.50000000 </v>
   <v>       0.41666667       0.16666667       0.50000000 </v>
   <v>       0.25000000       0.25000000       0.50000000 </v>
   <v>       0.33333333       0.25000000       0.50000000 </v>
   <v>       0.33333333       0.33333333       0.50000000 </v>
  </varray>
  <varray name="weights" >
   <v>       0.00057870 </v>
   <v>       0.00347222 </v>
   <v>       0.00347222 </v>
   <v>       0.00347222 </v>
   <v>       0.00347222 </v>
   <v>       0.00347222 </v>
   <v>       0.00173611 </v>
   <v>       0.00347222 </v>
   <v>       0.00694444 </v>
   <v>       0.00694444 </v>
   <v>       0.00694444 </v>
   <v>       0.00694444 </v>
   <v>       0.00347222 </v>
   <v>       0.00694444 </v>
   <v>       0.00694444 </v>
   <v>       0.00347222 </v>
   <v>       0.00347222 </v>
   <v>       0.00694444 </v>
   <v>       0.00115741 </v>
   <v>       0.00115741 </v>
   <v>       0.00694444 </v>
   <v>       0.00694444 </v>
   <v>       0.00694444 </v>
   <v>       0.00694444 </v>
   <v>       0.00694444 </v>
   <v>       0.00347222 </v>
   <v>       0.00694444 </v>
   <v>       0.01388889 </v>
   <v>       0.01388889 </v>
   <v>       0.01388889 </v>
   <v>       0.01388889 </v>
   <v>       0.00694444 </v>
   <v>       0.01388889 </v>
   <v>       0.01388889 </v>
   <v>       0.00694444 </v>
   <v>       0.00694444 </v>
   <v>       0.01388889 </v>
   <v>       0.00231481 </v>
   <v>       0.00115741 </v>
   <v>       0.00694444 </v>
   <v>       0.00694444 </v>
   <v>       0.00694444 </v>
   <v>       0.00694444 </v>
   <v>       0.00694444 </v>
   <v>       0.00347222 </v>
   <v>       0.00694444 </v>
   <v>       0.01388889 </v>
   <v>       0.01388889 </v>
   <v>       0.01388889 </v>
   <v>       0.01388889 </v>
   <v>       0.00694444 </v>
   <v>       0.01388889 </v>
   <v>       0.01388889 </v>
   <v>       0.00694444 </v>
   <v>       0.00694444 </v>
   <v>       0.01388889 </v>
   <v>       0.00231481 </v>
   <v>       0.00115741 </v>
   <v>       0.00694444 </v>
   <v>       0.00694444 </v>
   <v>       0.00694444 </v>
   <v>       0.00694444 </v>
   <v>       0.00694444 </v>
   <v>       0.00347222 </v>
   <v>       0.00694444 </v>
   <v>       0.01388889 </v>
   <v>       0.01388889 </v>
   <v>       0.01388889 </v>
   <v>       0.01388889 </v>
   <v>       0.00694444 </v>
   <v>       0.01388889 </v>
   <v>       0.01388889 </v>
   <v>       0.00694444 </v>
   <v>       0.00694444 </v>
   <v>       0.01388889 </v>
   <v>       0.00231481 </v>
   <v>       0.00115741 </v>
   <v>       0.00694444 </v>
   <v>       0.00694444 </v>
   <v>       0.00694444 </v>
   <v>       0.00694444 </v>
   <v>       0.00694444 </v>
   <v>       0.00347222 </v>
   <v>       0.00694444 </v>
   <v>       0.01388889 </v>
   <v>       0.01388889 </v>
   <v>       0.01388889 </v>
   <v>       0.01388889 </v>
   <v>       0.00694444 </v>
   <v>       0.01388889 </v>
   <v>       0.01388889 </v>
   <v>       0.00694444 </v>
   <v>       0.00694444 </v>
   <v>       0.01388889 </v>
   <v>       0.00231481 </v>
   <v>       0.00115741 </v>
   <v>       0.00694444 </v>
   <v>       0.00694444 </v>
   <v>       0.00694444 </v>
   <v>       0.00694444 </v>
   <v>       0.00694444 </v>
   <v>       0.00347222 </v>
   <v>       0.00694444 </v>
   <v>       0.01388889 </v>
   <v>       0.01388889 </v>
   <v>       0.01388889 </v>
   <v>       0.01388889 </v>
   <v>       0.00694444 </v>
   <v>       0.01388889 </v>
   <v>       0.01388889 </v>
   <v>       0.00694444 </v>
   <v>       0.00694444 </v>
   <v>       0.01388889 </v>
   <v>       0.00231481 </v>
   <v>       0.00057870 </v>
   <v>       0.00347222 </v>
   <v>       0.00347222 </v>
   <v>       0.00347222 </v>
   <v>       0.00347222 </v>
   <v>       0.00347222 </v>
   <v>       0.00173611 </v>
   <v>       0.00347222 </v>
   <v>       0.00694444 </v>
   <v>       0.00694444 </v>
   <v>       0.00694444 </v>
   <v>       0.00694444 </v>
   <v>       0.00347222 </v>
   <v>       0.00694444 </v>
   <v>       0.00694444 </v>
   <v>       0.00347222 </v>
   <v>       0.00347222 </v>
   <v>       0.00694444 </v>
   <v>       0.00115741 </v>
  </varray>
 </kpoints>
 <parameters>
  <separator name="general" >
   <i type="string" name="SYSTEM">(Si O2)81  (P1) ~ Ciellie_MCM41 (MD</i>
   <i type="logical" name="LCOMPAT"> F  </i>
  </separator>
  <separator name="electronic" >
   <i type="string" name="PREC">accura</i>
   <i name="ENMAX">    400.00000000</i>
   <i name="ENAUG">    605.39200000</i>
   <i name="EDIFF">      0.00001000</i>
   <i type="int" name="IALGO">    38</i>
   <i type="int" name="IWAVPR">    10</i>
   <i type="int" name="NBANDS">   784</i>
   <i name="NELECT">   1296.00000000</i>
   <i type="int" name="TURBO">     0</i>
   <i type="int" name="IRESTART">     0</i>
   <i type="int" name="NREBOOT">     0</i>
   <i type="int" name="NMIN">     0</i>
   <i name="EREF">      0.00000000</i>
   <separator name="electronic smearing" >
    <i type="int" name="ISMEAR">     0</i>
    <i name="SIGMA">      0.05000000</i>
    <i name="KSPACING">      0.50000000</i>
    <i type="logical" name="KGAMMA"> T  </i>
   </separator>
   <separator name="electronic projectors" >
    <i type="logical" name="LREAL"> T  </i>
    <v name="ROPT">     -0.00025000     -0.00025000</v>
    <i type="int" name="LMAXPAW">  -100</i>
    <i type="int" name="LMAXMIX">     2</i>
    <i type="logical" name="NLSPLINE"> F  </i>
   </separator>
   <separator name="electronic startup" >
    <i type="int" name="ISTART">     0</i>
    <i type="int" name="ICHARG">     2</i>
    <i type="int" name="INIWAV">     1</i>
   </separator>
   <separator name="electronic spin" >
    <i type="int" name="ISPIN">     1</i>
    <i type="logical" name="LNONCOLLINEAR"> F  </i>
    <v name="MAGMOM">      1.00000000      1.00000000      1.00000000      1.00000000      1.00000000      1.00000000      1.00000000      1.00000000      1.00000000      1.00000000      1.00000000      1.00000000      1.00000000      1.00000000      1.00000000      1.00000000      1.00000000      1.00000000      1.00000000      1.00000000
      1.00000000      1.00000000      1.00000000      1.00000000      1.00000000      1.00000000      1.00000000      1.00000000      1.00000000      1.00000000      1.00000000      1.00000000      1.00000000      1.00000000      1.00000000      1.00000000      1.00000000      1.00000000      1.00000000      1.00000000
      1.00000000      1.00000000      1.00000000      1.00000000      1.00000000      1.00000000      1.00000000      1.00000000      1.00000000      1.00000000      1.00000000      1.00000000      1.00000000      1.00000000      1.00000000      1.00000000      1.00000000      1.00000000      1.00000000      1.00000000
      1.00000000      1.00000000      1.00000000      1.00000000      1.00000000      1.00000000      1.00000000      1.00000000      1.00000000      1.00000000      1.00000000      1.00000000      1.00000000      1.00000000      1.00000000      1.00000000      1.00000000      1.00000000      1.00000000      1.00000000
      1.00000000      1.00000000      1.00000000      1.00000000      1.00000000      1.00000000      1.00000000      1.00000000      1.00000000      1.00000000      1.00000000      1.00000000      1.00000000      1.00000000      1.00000000      1.00000000      1.00000000      1.00000000      1.00000000      1.00000000
      1.00000000      1.00000000      1.00000000      1.00000000      1.00000000      1.00000000      1.00000000      1.00000000      1.00000000      1.00000000      1.00000000      1.00000000      1.00000000      1.00000000      1.00000000      1.00000000      1.00000000      1.00000000      1.00000000      1.00000000
      1.00000000      1.00000000      1.00000000      1.00000000      1.00000000      1.00000000      1.00000000      1.00000000      1.00000000      1.00000000      1.00000000      1.00000000      1.00000000      1.00000000      1.00000000      1.00000000      1.00000000      1.00000000      1.00000000      1.00000000
      1.00000000      1.00000000      1.00000000      1.00000000      1.00000000      1.00000000      1.00000000      1.00000000      1.00000000      1.00000000      1.00000000      1.00000000      1.00000000      1.00000000      1.00000000      1.00000000      1.00000000      1.00000000      1.00000000      1.00000000
      1.00000000      1.00000000      1.00000000      1.00000000      1.00000000      1.00000000      1.00000000      1.00000000      1.00000000      1.00000000      1.00000000      1.00000000      1.00000000      1.00000000      1.00000000      1.00000000      1.00000000      1.00000000      1.00000000      1.00000000
      1.00000000      1.00000000      1.00000000      1.00000000      1.00000000      1.00000000      1.00000000      1.00000000      1.00000000      1.00000000      1.00000000      1.00000000      1.00000000      1.00000000      1.00000000      1.00000000      1.00000000      1.00000000      1.00000000      1.00000000
      1.00000000      1.00000000      1.00000000      1.00000000      1.00000000      1.00000000      1.00000000      1.00000000      1.00000000      1.00000000      1.00000000      1.00000000      1.00000000      1.00000000      1.00000000      1.00000000      1.00000000      1.00000000      1.00000000      1.00000000
      1.00000000      1.00000000      1.00000000      1.00000000      1.00000000      1.00000000      1.00000000      1.00000000      1.00000000      1.00000000      1.00000000      1.00000000      1.00000000      1.00000000      1.00000000      1.00000000      1.00000000      1.00000000      1.00000000      1.00000000
      1.00000000      1.00000000      1.00000000</v>
    <i name="NUPDOWN">     -1.00000000</i>
    <i type="logical" name="LSORBIT"> F  </i>
    <v name="SAXIS">      0.00000000      0.00000000      1.00000000</v>
    <i type="logical" name="LSPIRAL"> F  </i>
    <v name="QSPIRAL">      0.00000000      0.00000000      0.00000000</v>
    <i type="logical" name="LZEROZ"> F  </i>
   </separator>
   <separator name="electronic exchange-correlation" >
    <i type="logical" name="LASPH"> F  </i>
    <i type="logical" name="LMETAGGA"> F  </i>
   </separator>
   <separator name="electronic convergence" >
    <i type="int" name="NELM">    60</i>
    <i type="int" name="NELMDL">    -5</i>
    <i type="int" name="NELMIN">     2</i>
    <i name="ENINI">    400.00000000</i>
    <separator name="electronic convergence detail" >
     <i type="logical" name="LDIAG"> T  </i>
     <i type="logical" name="LSUBROT"> F  </i>
     <i name="WEIMIN">      0.00000000</i>
     <i name="EBREAK">      0.00000000</i>
     <i name="DEPER">      0.30000000</i>
     <i type="int" name="NRMM">     4</i>
     <i name="TIME">      0.40000000</i>
    </separator>
   </separator>
   <separator name="electronic mixer" >
    <i name="AMIX">      0.40000000</i>
    <i name="BMIX">      1.00000000</i>
    <i name="AMIN">      0.10000000</i>
    <i name="AMIX_MAG">      1.60000000</i>
    <i name="BMIX_MAG">      1.00000000</i>
    <separator name="electronic mixer details" >
     <i type="int" name="IMIX">     4</i>
     <i type="int" name="MAXMIX">   -45</i>
     <i name="WC">    100.00000000</i>
     <i type="int" name="INIMIX">     1</i>
     <i type="int" name="MIXPRE">     1</i>
     <i type="int" name="MREMOVE">     5</i>
    </separator>
   </separator>
   <separator name="electronic dipolcorrection" >
    <i type="logical" name="LDIPOL"> F  </i>
    <i type="logical" name="LMONO"> F  </i>
    <i type="int" name="IDIPOL">     0</i>
    <i name="EPSILON">      1.00000000</i>
    <v name="DIPOL">   -100.00000000   -100.00000000   -100.00000000</v>
    <i name="EFIELD">      0.00000000</i>
   </separator>
  </separator>
  <separator name="grids" >
   <i type="int" name="NGX">    98</i>
   <i type="int" name="NGY">    98</i>
   <i type="int" name="NGZ">   108</i>
   <i type="int" name="NGXF">    98</i>
   <i type="int" name="NGYF">    98</i>
   <i type="int" name="NGZF">   108</i>
   <i type="logical" name="ADDGRID"> F  </i>
  </separator>
  <separator name="ionic" >
   <i type="int" name="NSW">     0</i>
   <i type="int" name="IBRION">    -1</i>
   <i type="int" name="ISIF">     2</i>
   <i name="PSTRESS">      0.00000000</i>
   <i name="EDIFFG">      0.00010000</i>
   <i type="int" name="NFREE">     0</i>
   <i name="POTIM">      0.50000000</i>
   <i name="SMASS">     -3.00000000</i>
   <i name="SCALEE">      1.00000000</i>
  </separator>
  <separator name="ionic md" >
   <i name="TEBEG">      0.00010000</i>
   <i name="TEEND">      0.00010000</i>
   <i type="int" name="NBLOCK">     1</i>
   <i type="int" name="KBLOCK">     1</i>
   <i type="int" name="NPACO">   256</i>
   <i name="APACO">     16.00000000</i>
  </separator>
  <separator name="symmetry" >
   <i type="int" name="ISYM">     2</i>
   <i name="SYMPREC">      0.00001000</i>
  </separator>
  <separator name="dos" >
   <i type="logical" name="LORBIT"> F  </i>
   <v name="RWIGS">     -1.00000000     -1.00000000</v>
   <i type="int" name="NEDOS">   301</i>
   <i name="EMIN">     10.00000000</i>
   <i name="EMAX">    -10.00000000</i>
   <i name="EFERMI">      0.00000000</i>
  </separator>
  <separator name="writing" >
   <i type="int" name="NWRITE">     2</i>
   <i type="logical" name="LWAVE"> F  </i>
   <i type="logical" name="LCHARG"> F  </i>
   <i type="logical" name="LPARD"> F  </i>
   <i type="logical" name="LVTOT"> F  </i>
   <i type="logical" name="LVHAR"> F  </i>
   <i type="logical" name="LELF"> F  </i>
   <i type="logical" name="LOPTICS"> F  </i>
   <v name="STM">      0.00000000      0.00000000      0.00000000      0.00000000      0.00000000      0.00000000      0.00000000</v>
  </separator>
  <separator name="performance" >
   <i type="int" name="NPAR">     8</i>
   <i type="int" name="NSIM">     4</i>
   <i type="int" name="NBLK">    -1</i>
   <i type="logical" name="LPLANE"> T  </i>
   <i type="logical" name="LSCALAPACK"> T  </i>
   <i type="logical" name="LSCAAWARE"> T  </i>
   <i type="logical" name="LSCALU"> F  </i>
   <i type="logical" name="LASYNC"> F  </i>
   <i type="logical" name="LORBITALREAL"> F  </i>
  </separator>
  <separator name="miscellaneous" >
   <i type="int" name="IDIOT">     3</i>
   <i type="logical" name="LMUSIC"> F  </i>
   <v name="POMASS">     16.00000000     28.08500000</v>
   <v name="DARWINR">      0.00000000      0.00000000</v>
   <v name="DARWINV">      1.00000000      1.00000000</v>
   <i type="logical" name="LCORR"> T  </i>
  </separator>
  <i type="logical" name="GGA_COMPAT"> T  </i>
  <i type="logical" name="LBERRY"> F  </i>
  <i type="int" name="ICORELEVEL">     0</i>
  <i type="logical" name="LDAU"> F  </i>
  <i type="int" name="I_CONSTRAINED_M">     0</i>
  <separator name="electronic exchange-correlation" >
   <i type="string" name="GGA">--</i>
   <i type="int" name="VOSKOWN">     0</i>
   <i type="logical" name="LHFCALC"> F  </i>
   <i type="string" name="PRECFOCK"></i>
   <i type="logical" name="LSYMGRAD"> F  </i>
   <i type="logical" name="LHFONE"> F  </i>
   <i type="logical" name="LRHFCALC"> F  </i>
   <i type="logical" name="LTHOMAS"> F  </i>
   <i type="logical" name="LMODELHF"> F  </i>
   <i name="ENCUT4O">     -1.00000000</i>
   <i type="int" name="EXXOEP">     0</i>
   <i type="int" name="FOURORBIT">     0</i>
   <i name="AEXX">      0.00000000</i>
   <i name="HFALPHA">      0.00000000</i>
   <i name="MCALPHA">      0.00000000</i>
   <i name="ALDAX">      1.00000000</i>
   <i name="AGGAX">      1.00000000</i>
   <i name="ALDAC">      1.00000000</i>
   <i name="AGGAC">      1.00000000</i>
   <i type="int" name="NKREDX">     1</i>
   <i type="int" name="NKREDY">     1</i>
   <i type="int" name="NKREDZ">     1</i>
   <i type="logical" name="SHIFTRED"> F  </i>
   <i type="logical" name="ODDONLY"> F  </i>
   <i type="logical" name="EVENONLY"> F  </i>
   <i type="int" name="LMAXFOCK">     0</i>
   <i type="int" name="NMAXFOCKAE">     0</i>
   <i type="logical" name="LFOCKAEDFT"> F  </i>
   <i name="HFSCREEN">      0.00000000</i>
   <i name="HFSCREENC">      0.00000000</i>
   <i type="int" name="NBANDSGWLOW">     0</i>
  </separator>
  <separator name="vdW DFT" >
   <i type="logical" name="LUSE_VDW"> F  </i>
   <i name="Zab_VDW">     -0.84910000</i>
   <i name="PARAM1">      0.12340000</i>
   <i name="PARAM2">      1.00000000</i>
   <i name="PARAM3">      0.00000000</i>
  </separator>
  <separator name="model GW" >
   <i type="int" name="MODEL_GW">     0</i>
   <i name="MODEL_EPS0">      7.86828565</i>
   <i name="MODEL_ALPHA">      1.00000000</i>
  </separator>
  <separator name="linear response parameters" >
   <i type="logical" name="LEPSILON"> F  </i>
   <i type="logical" name="LRPA"> F  </i>
   <i type="logical" name="LNABLA"> F  </i>
   <i type="logical" name="LVEL"> F  </i>
   <i type="int" name="KINTER">     0</i>
   <i name="CSHIFT">      0.10000000</i>
   <i name="OMEGAMAX">     -1.00000000</i>
   <i name="DEG_THRESHOLD">      0.00200000</i>
  </separator>
  <separator name="orbital magnetization" >
   <i type="logical" name="NUCIND"> F  </i>
   <v name="MAGPOS">      0.00000000      0.00000000      0.00000000</v>
   <i type="logical" name="LNICSALL"> T  </i>
   <i type="logical" name="ORBITALMAG"> F  </i>
   <i type="logical" name="LMAGBLOCH"> F  </i>
   <i type="logical" name="LCHIMAG"> F  </i>
   <i type="logical" name="LGAUGE"> T  </i>
   <i type="int" name="MAGATOM">     0</i>
   <v name="MAGDIPOL">      0.00000000      0.00000000      0.00000000</v>
   <v name="AVECCONST">      0.00000000      0.00000000      0.00000000</v>
  </separator>
  <separator name="response functions" >
   <i type="logical" name="LADDER"> F  </i>
   <i type="logical" name="LFXC"> F  </i>
   <i type="logical" name="LHARTREE"> T  </i>
   <i type="int" name="IBSE">     0</i>
   <i type="logical" name="LTCTE"> F  </i>
   <i type="logical" name="LTETE"> F  </i>
   <i type="logical" name="LTRIPLET"> F  </i>
   <i type="logical" name="LFXCEPS"> F  </i>
   <i type="logical" name="LFXHEG"> F  </i>
   <i type="logical" name="L2ORDER"> F  </i>
   <i type="logical" name="LUSEW"> F  </i>
   <i name="ENCUTGW">     -2.00000000</i>
   <i name="ENCUTGWSOFT">     -2.00000000</i>
   <i name="ENCUTLF">     -1.00000000</i>
   <i type="int" name="LMAXMP2">    -1</i>
   <i name="SCISSOR">      0.00000000</i>
   <i type="int" name="NOMEGA">     0</i>
   <i type="int" name="NOMEGAR">     0</i>
   <i type="int" name="NBANDSGW">    -1</i>
   <i type="int" name="NBANDSO">    -1</i>
   <i type="int" name="NBANDSV">    -1</i>
   <i type="int" name="NELM">     1</i>
   <i type="int" name="DIM">     3</i>
   <i type="int" name="ANTIRES">     0</i>
   <i name="OMEGAMAX">    -30.00000000</i>
   <i name="OMEGAMIN">    -30.00000000</i>
   <i name="OMEGATL">   -200.00000000</i>
   <i type="int" name="OMEGAGRID">     0</i>
   <i name="CSHIFT">     -0.10000000</i>
   <i type="logical" name="SELFENERGY"> F  </i>
   <i type="logical" name="LSPECTRAL"> F  </i>
   <i type="logical" name="ODDONLYGW"> F  </i>
   <i type="logical" name="EVENONLYGW"> F  </i>
   <i type="int" name="NKREDLFX">     1</i>
   <i type="int" name="NKREDLFY">     1</i>
   <i type="int" name="NKREDLFZ">     1</i>
   <i type="int" name="MAXMEM">  1800</i>
   <i type="int" name="TELESCOPE">     0</i>
   <i type="int" name="TAUPAR">     1</i>
  </separator>
  <separator name="External order field" >
   <i name="OFIELD_KAPPA">      0.00000000</i>
   <v name="OFIELD_K">      0.00000000      0.00000000      0.00000000</v>
   <i name="OFIELD_Q6_NEAR">      0.00000000</i>
   <i name="OFIELD_Q6_FAR">      0.00000000</i>
   <i name="OFIELD_A">      0.00000000</i>
  </separator>
 </parameters>
 <atominfo>
  <atoms>     243 </atoms>
  <types>       2 </types>
  <array name="atoms" >
   <dimension dim="1">ion</dimension>
   <field type="string">element</field>
   <field type="int">atomtype</field>
   <set>
    <rc><c>O </c><c>   1</c></rc>
    <rc><c>O </c><c>   1</c></rc>
    <rc><c>O </c><c>   1</c></rc>
    <rc><c>O </c><c>   1</c></rc>
    <rc><c>O </c><c>   1</c></rc>
    <rc><c>O </c><c>   1</c></rc>
    <rc><c>O </c><c>   1</c></rc>
    <rc><c>O </c><c>   1</c></rc>
    <rc><c>O </c><c>   1</c></rc>
    <rc><c>O </c><c>   1</c></rc>
    <rc><c>O </c><c>   1</c></rc>
    <rc><c>O </c><c>   1</c></rc>
    <rc><c>O </c><c>   1</c></rc>
    <rc><c>O </c><c>   1</c></rc>
    <rc><c>O </c><c>   1</c></rc>
    <rc><c>O </c><c>   1</c></rc>
    <rc><c>O </c><c>   1</c></rc>
    <rc><c>O </c><c>   1</c></rc>
    <rc><c>O </c><c>   1</c></rc>
    <rc><c>O </c><c>   1</c></rc>
    <rc><c>O </c><c>   1</c></rc>
    <rc><c>O </c><c>   1</c></rc>
    <rc><c>O </c><c>   1</c></rc>
    <rc><c>O </c><c>   1</c></rc>
    <rc><c>O </c><c>   1</c></rc>
    <rc><c>O </c><c>   1</c></rc>
    <rc><c>O </c><c>   1</c></rc>
    <rc><c>O </c><c>   1</c></rc>
    <rc><c>O </c><c>   1</c></rc>
    <rc><c>O </c><c>   1</c></rc>
    <rc><c>O </c><c>   1</c></rc>
    <rc><c>O </c><c>   1</c></rc>
    <rc><c>O </c><c>   1</c></rc>
    <rc><c>O </c><c>   1</c></rc>
    <rc><c>O </c><c>   1</c></rc>
    <rc><c>O </c><c>   1</c></rc>
    <rc><c>O </c><c>   1</c></rc>
    <rc><c>O </c><c>   1</c></rc>
    <rc><c>O </c><c>   1</c></rc>
    <rc><c>O </c><c>   1</c></rc>
    <rc><c>O </c><c>   1</c></rc>
    <rc><c>O </c><c>   1</c></rc>
    <rc><c>O </c><c>   1</c></rc>
    <rc><c>O </c><c>   1</c></rc>
    <rc><c>O </c><c>   1</c></rc>
    <rc><c>O </c><c>   1</c></rc>
    <rc><c>O </c><c>   1</c></rc>
    <rc><c>O </c><c>   1</c></rc>
    <rc><c>O </c><c>   1</c></rc>
    <rc><c>O </c><c>   1</c></rc>
    <rc><c>O </c><c>   1</c></rc>
    <rc><c>O </c><c>   1</c></rc>
    <rc><c>O </c><c>   1</c></rc>
    <rc><c>O </c><c>   1</c></rc>
    <rc><c>O </c><c>   1</c></rc>
    <rc><c>O </c><c>   1</c></rc>
    <rc><c>O </c><c>   1</c></rc>
    <rc><c>O </c><c>   1</c></rc>
    <rc><c>O </c><c>   1</c></rc>
    <rc><c>O </c><c>   1</c></rc>
    <rc><c>O </c><c>   1</c></rc>
    <rc><c>O </c><c>   1</c></rc>
    <rc><c>O </c><c>   1</c></rc>
    <rc><c>O </c><c>   1</c></rc>
    <rc><c>O </c><c>   1</c></rc>
    <rc><c>O </c><c>   1</c></rc>
    <rc><c>O </c><c>   1</c></rc>
    <rc><c>O </c><c>   1</c></rc>
    <rc><c>O </c><c>   1</c></rc>
    <rc><c>O </c><c>   1</c></rc>
    <rc><c>O </c><c>   1</c></rc>
    <rc><c>O </c><c>   1</c></rc>
    <rc><c>O </c><c>   1</c></rc>
    <rc><c>O </c><c>   1</c></rc>
    <rc><c>O </c><c>   1</c></rc>
    <rc><c>O </c><c>   1</c></rc>
    <rc><c>O </c><c>   1</c></rc>
    <rc><c>O </c><c>   1</c></rc>
    <rc><c>O </c><c>   1</c></rc>
    <rc><c>O </c><c>   1</c></rc>
    <rc><c>O </c><c>   1</c></rc>
    <rc><c>O </c><c>   1</c></rc>
    <rc><c>O </c><c>   1</c></rc>
    <rc><c>O </c><c>   1</c></rc>
    <rc><c>O </c><c>   1</c></rc>
    <rc><c>O </c><c>   1</c></rc>
    <rc><c>O </c><c>   1</c></rc>
    <rc><c>O </c><c>   1</c></rc>
    <rc><c>O </c><c>   1</c></rc>
    <rc><c>O </c><c>   1</c></rc>
    <rc><c>O </c><c>   1</c></rc>
    <rc><c>O </c><c>   1</c></rc>
    <rc><c>O </c><c>   1</c></rc>
    <rc><c>O </c><c>   1</c></rc>
    <rc><c>O </c><c>   1</c></rc>
    <rc><c>O </c><c>   1</c></rc>
    <rc><c>O </c><c>   1</c></rc>
    <rc><c>O </c><c>   1</c></rc>
    <rc><c>O </c><c>   1</c></rc>
    <rc><c>O </c><c>   1</c></rc>
    <rc><c>O </c><c>   1</c></rc>
    <rc><c>O </c><c>   1</c></rc>
    <rc><c>O </c><c>   1</c></rc>
    <rc><c>O </c><c>   1</c></rc>
    <rc><c>O </c><c>   1</c></rc>
    <rc><c>O </c><c>   1</c></rc>
    <rc><c>O </c><c>   1</c></rc>
    <rc><c>O </c><c>   1</c></rc>
    <rc><c>O </c><c>   1</c></rc>
    <rc><c>O </c><c>   1</c></rc>
    <rc><c>O </c><c>   1</c></rc>
    <rc><c>O </c><c>   1</c></rc>
    <rc><c>O </c><c>   1</c></rc>
    <rc><c>O </c><c>   1</c></rc>
    <rc><c>O </c><c>   1</c></rc>
    <rc><c>O </c><c>   1</c></rc>
    <rc><c>O </c><c>   1</c></rc>
    <rc><c>O </c><c>   1</c></rc>
    <rc><c>O </c><c>   1</c></rc>
    <rc><c>O </c><c>   1</c></rc>
    <rc><c>O </c><c>   1</c></rc>
    <rc><c>O </c><c>   1</c></rc>
    <rc><c>O </c><c>   1</c></rc>
    <rc><c>O </c><c>   1</c></rc>
    <rc><c>O </c><c>   1</c></rc>
    <rc><c>O </c><c>   1</c></rc>
    <rc><c>O </c><c>   1</c></rc>
    <rc><c>O </c><c>   1</c></rc>
    <rc><c>O </c><c>   1</c></rc>
    <rc><c>O </c><c>   1</c></rc>
    <rc><c>O </c><c>   1</c></rc>
    <rc><c>O </c><c>   1</c></rc>
    <rc><c>O </c><c>   1</c></rc>
    <rc><c>O </c><c>   1</c></rc>
    <rc><c>O </c><c>   1</c></rc>
    <rc><c>O </c><c>   1</c></rc>
    <rc><c>O </c><c>   1</c></rc>
    <rc><c>O </c><c>   1</c></rc>
    <rc><c>O </c><c>   1</c></rc>
    <rc><c>O </c><c>   1</c></rc>
    <rc><c>O </c><c>   1</c></rc>
    <rc><c>O </c><c>   1</c></rc>
    <rc><c>O </c><c>   1</c></rc>
    <rc><c>O </c><c>   1</c></rc>
    <rc><c>O </c><c>   1</c></rc>
    <rc><c>O </c><c>   1</c></rc>
    <rc><c>O </c><c>   1</c></rc>
    <rc><c>O </c><c>   1</c></rc>
    <rc><c>O </c><c>   1</c></rc>
    <rc><c>O </c><c>   1</c></rc>
    <rc><c>O </c><c>   1</c></rc>
    <rc><c>O </c><c>   1</c></rc>
    <rc><c>O </c><c>   1</c></rc>
    <rc><c>O </c><c>   1</c></rc>
    <rc><c>O </c><c>   1</c></rc>
    <rc><c>O </c><c>   1</c></rc>
    <rc><c>O </c><c>   1</c></rc>
    <rc><c>O </c><c>   1</c></rc>
    <rc><c>O </c><c>   1</c></rc>
    <rc><c>O </c><c>   1</c></rc>
    <rc><c>O </c><c>   1</c></rc>
    <rc><c>O </c><c>   1</c></rc>
    <rc><c>Si</c><c>   2</c></rc>
    <rc><c>Si</c><c>   2</c></rc>
    <rc><c>Si</c><c>   2</c></rc>
    <rc><c>Si</c><c>   2</c></rc>
    <rc><c>Si</c><c>   2</c></rc>
    <rc><c>Si</c><c>   2</c></rc>
    <rc><c>Si</c><c>   2</c></rc>
    <rc><c>Si</c><c>   2</c></rc>
    <rc><c>Si</c><c>   2</c></rc>
    <rc><c>Si</c><c>   2</c></rc>
    <rc><c>Si</c><c>   2</c></rc>
    <rc><c>Si</c><c>   2</c></rc>
    <rc><c>Si</c><c>   2</c></rc>
    <rc><c>Si</c><c>   2</c></rc>
    <rc><c>Si</c><c>   2</c></rc>
    <rc><c>Si</c><c>   2</c></rc>
    <rc><c>Si</c><c>   2</c></rc>
    <rc><c>Si</c><c>   2</c></rc>
    <rc><c>Si</c><c>   2</c></rc>
    <rc><c>Si</c><c>   2</c></rc>
    <rc><c>Si</c><c>   2</c></rc>
    <rc><c>Si</c><c>   2</c></rc>
    <rc><c>Si</c><c>   2</c></rc>
    <rc><c>Si</c><c>   2</c></rc>
    <rc><c>Si</c><c>   2</c></rc>
    <rc><c>Si</c><c>   2</c></rc>
    <rc><c>Si</c><c>   2</c></rc>
    <rc><c>Si</c><c>   2</c></rc>
    <rc><c>Si</c><c>   2</c></rc>
    <rc><c>Si</c><c>   2</c></rc>
    <rc><c>Si</c><c>   2</c></rc>
    <rc><c>Si</c><c>   2</c></rc>
    <rc><c>Si</c><c>   2</c></rc>
    <rc><c>Si</c><c>   2</c></rc>
    <rc><c>Si</c><c>   2</c></rc>
    <rc><c>Si</c><c>   2</c></rc>
    <rc><c>Si</c><c>   2</c></rc>
    <rc><c>Si</c><c>   2</c></rc>
    <rc><c>Si</c><c>   2</c></rc>
    <rc><c>Si</c><c>   2</c></rc>
    <rc><c>Si</c><c>   2</c></rc>
    <rc><c>Si</c><c>   2</c></rc>
    <rc><c>Si</c><c>   2</c></rc>
    <rc><c>Si</c><c>   2</c></rc>
    <rc><c>Si</c><c>   2</c></rc>
    <rc><c>Si</c><c>   2</c></rc>
    <rc><c>Si</c><c>   2</c></rc>
    <rc><c>Si</c><c>   2</c></rc>
    <rc><c>Si</c><c>   2</c></rc>
    <rc><c>Si</c><c>   2</c></rc>
    <rc><c>Si</c><c>   2</c></rc>
    <rc><c>Si</c><c>   2</c></rc>
    <rc><c>Si</c><c>   2</c></rc>
    <rc><c>Si</c><c>   2</c></rc>
    <rc><c>Si</c><c>   2</c></rc>
    <rc><c>Si</c><c>   2</c></rc>
    <rc><c>Si</c><c>   2</c></rc>
    <rc><c>Si</c><c>   2</c></rc>
    <rc><c>Si</c><c>   2</c></rc>
    <rc><c>Si</c><c>   2</c></rc>
    <rc><c>Si</c><c>   2</c></rc>
    <rc><c>Si</c><c>   2</c></rc>
    <rc><c>Si</c><c>   2</c></rc>
    <rc><c>Si</c><c>   2</c></rc>
    <rc><c>Si</c><c>   2</c></rc>
    <rc><c>Si</c><c>   2</c></rc>
    <rc><c>Si</c><c>   2</c></rc>
    <rc><c>Si</c><c>   2</c></rc>
    <rc><c>Si</c><c>   2</c></rc>
    <rc><c>Si</c><c>   2</c></rc>
    <rc><c>Si</c><c>   2</c></rc>
    <rc><c>Si</c><c>   2</c></rc>
    <rc><c>Si</c><c>   2</c></rc>
    <rc><c>Si</c><c>   2</c></rc>
    <rc><c>Si</c><c>   2</c></rc>
    <rc><c>Si</c><c>   2</c></rc>
    <rc><c>Si</c><c>   2</c></rc>
    <rc><c>Si</c><c>   2</c></rc>
    <rc><c>Si</c><c>   2</c></rc>
    <rc><c>Si</c><c>   2</c></rc>
    <rc><c>Si</c><c>   2</c></rc>
   </set>
  </array>
  <array name="atomtypes" >
   <dimension dim="1">type</dimension>
   <field type="int">atomspertype</field>
   <field type="string">element</field>
   <field>mass</field>
   <field>valence</field>
   <field type="string">pseudopotential</field>
   <set>
    <rc><c> 162</c><c>O </c><c>     16.00000000</c><c>      6.00000000</c><c>  PAW_PBE O 08Apr2002                   </c></rc>
    <rc><c>  81</c><c>Si</c><c>     28.08500000</c><c>      4.00000000</c><c>  PAW_PBE Si 05Jan2001                  </c></rc>
   </set>
  </array>
 </atominfo>
 <structure name="initialpos" >
  <crystal>
   <varray name="basis" >
    <v>      14.99190030       0.00000000       0.00000000 </v>
    <v>      -7.49594983      12.98336669       0.00000000 </v>
    <v>       0.00000030       0.00000052      16.37160030 </v>
   </varray>
   <i name="volume">   3186.65568995 </i>
   <varray name="rec_basis" >
    <v>       0.06670268       0.03851081      -0.00000000 </v>
    <v>       0.00000000       0.07702162      -0.00000000 </v>
    <v>       0.00000000       0.00000000       0.06108138 </v>
   </varray>
  </crystal>
  <varray name="positions" >
   <v>       0.06921667       0.13843334       0.00000000 </v>
   <v>       0.26411666       0.06921667       0.11111111 </v>
   <v>       0.19489999       0.26411666       0.22222222 </v>
   <v>       0.26411666       0.19489999       0.00000000 </v>
   <v>       0.06921667       0.26411666       0.11111111 </v>
   <v>       0.13843334       0.06921667       0.22222222 </v>
   <v>       0.06921667       0.13843334       0.33333333 </v>
   <v>       0.26411666       0.06921667       0.44444444 </v>
   <v>       0.19489999       0.26411666       0.55555556 </v>
   <v>       0.26411666       0.19489999       0.33333333 </v>
   <v>       0.06921667       0.26411666       0.44444444 </v>
   <v>       0.13843334       0.06921667       0.55555556 </v>
   <v>       0.06921667       0.13843334       0.66666667 </v>
   <v>       0.26411666       0.06921667       0.77777778 </v>
   <v>       0.19489999       0.26411666       0.88888889 </v>
   <v>       0.26411666       0.19489999       0.66666667 </v>
   <v>       0.06921667       0.26411666       0.77777778 </v>
   <v>       0.13843334       0.06921667       0.88888889 </v>
   <v>       0.06921667       0.47176667       0.00000000 </v>
   <v>       0.26411666       0.40255000       0.11111111 </v>
   <v>       0.19489999       0.59745000       0.22222222 </v>
   <v>       0.26411666       0.52823333       0.00000000 </v>
   <v>       0.06921667       0.59745000       0.11111111 </v>
   <v>       0.13843334       0.40255000       0.22222222 </v>
   <v>       0.06921667       0.47176667       0.33333333 </v>
   <v>       0.26411666       0.40255000       0.44444444 </v>
   <v>       0.19489999       0.59745000       0.55555556 </v>
   <v>       0.26411666       0.52823333       0.33333333 </v>
   <v>       0.06921667       0.59745000       0.44444444 </v>
   <v>       0.13843334       0.40255000       0.55555556 </v>
   <v>       0.06921667       0.47176667       0.66666667 </v>
   <v>       0.26411666       0.40255000       0.77777778 </v>
   <v>       0.19489999       0.59745000       0.88888889 </v>
   <v>       0.26411666       0.52823333       0.66666667 </v>
   <v>       0.06921667       0.59745000       0.77777778 </v>
   <v>       0.13843334       0.40255000       0.88888889 </v>
   <v>       0.06921667       0.80510001       0.00000000 </v>
   <v>       0.26411666       0.73588334       0.11111111 </v>
   <v>       0.19489999       0.93078333       0.22222222 </v>
   <v>       0.26411666       0.86156666       0.00000000 </v>
   <v>       0.06921667       0.93078333       0.11111111 </v>
   <v>       0.13843334       0.73588334       0.22222222 </v>
   <v>       0.06921667       0.80510001       0.33333333 </v>
   <v>       0.26411666       0.73588334       0.44444444 </v>
   <v>       0.19489999       0.93078333       0.55555556 </v>
   <v>       0.26411666       0.86156666       0.33333333 </v>
   <v>       0.06921667       0.93078333       0.44444444 </v>
   <v>       0.13843334       0.73588334       0.55555556 </v>
   <v>       0.06921667       0.80510001       0.66666667 </v>
   <v>       0.26411666       0.73588334       0.77777778 </v>
   <v>       0.19489999       0.93078333       0.88888889 </v>
   <v>       0.26411666       0.86156666       0.66666667 </v>
   <v>       0.06921667       0.93078333       0.77777778 </v>
   <v>       0.13843334       0.73588334       0.88888889 </v>
   <v>       0.40255000       0.13843334       0.00000000 </v>
   <v>       0.59745000       0.06921667       0.11111111 </v>
   <v>       0.52823333       0.26411666       0.22222222 </v>
   <v>       0.59745000       0.19489999       0.00000000 </v>
   <v>       0.40255000       0.26411666       0.11111111 </v>
   <v>       0.47176667       0.06921667       0.22222222 </v>
   <v>       0.40255000       0.13843334       0.33333333 </v>
   <v>       0.59745000       0.06921667       0.44444444 </v>
   <v>       0.52823333       0.26411666       0.55555556 </v>
   <v>       0.59745000       0.19489999       0.33333333 </v>
   <v>       0.40255000       0.26411666       0.44444444 </v>
   <v>       0.47176667       0.06921667       0.55555556 </v>
   <v>       0.40255000       0.13843334       0.66666667 </v>
   <v>       0.59745000       0.06921667       0.77777778 </v>
   <v>       0.52823333       0.26411666       0.88888889 </v>
   <v>       0.59745000       0.19489999       0.66666667 </v>
   <v>       0.40255000       0.26411666       0.77777778 </v>
   <v>       0.47176667       0.06921667       0.88888889 </v>
   <v>       0.40255000       0.47176667       0.00000000 </v>
   <v>       0.59745000       0.40255000       0.11111111 </v>
   <v>       0.52823333       0.59745000       0.22222222 </v>
   <v>       0.59745000       0.52823333       0.00000000 </v>
   <v>       0.40255000       0.59745000       0.11111111 </v>
   <v>       0.47176667       0.40255000       0.22222222 </v>
   <v>       0.40255000       0.47176667       0.33333333 </v>
   <v>       0.59745000       0.40255000       0.44444444 </v>
   <v>       0.52823333       0.59745000       0.55555556 </v>
   <v>       0.59745000       0.52823333       0.33333333 </v>
   <v>       0.40255000       0.59745000       0.44444444 </v>
   <v>       0.47176667       0.40255000       0.55555556 </v>
   <v>       0.40255000       0.47176667       0.66666667 </v>
   <v>       0.59745000       0.40255000       0.77777778 </v>
   <v>       0.52823333       0.59745000       0.88888889 </v>
   <v>       0.59745000       0.52823333       0.66666667 </v>
   <v>       0.40255000       0.59745000       0.77777778 </v>
   <v>       0.47176667       0.40255000       0.88888889 </v>
   <v>       0.40255000       0.80510001       0.00000000 </v>
   <v>       0.59745000       0.73588334       0.11111111 </v>
   <v>       0.52823333       0.93078333       0.22222222 </v>
   <v>       0.59745000       0.86156666       0.00000000 </v>
   <v>       0.40255000       0.93078333       0.11111111 </v>
   <v>       0.47176667       0.73588334       0.22222222 </v>
   <v>       0.40255000       0.80510001       0.33333333 </v>
   <v>       0.59745000       0.73588334       0.44444444 </v>
   <v>       0.52823333       0.93078333       0.55555556 </v>
   <v>       0.59745000       0.86156666       0.33333333 </v>
   <v>       0.40255000       0.93078333       0.44444444 </v>
   <v>       0.47176667       0.73588334       0.55555556 </v>
   <v>       0.40255000       0.80510001       0.66666667 </v>
   <v>       0.59745000       0.73588334       0.77777778 </v>
   <v>       0.52823333       0.93078333       0.88888889 </v>
   <v>       0.59745000       0.86156666       0.66666667 </v>
   <v>       0.40255000       0.93078333       0.77777778 </v>
   <v>       0.47176667       0.73588334       0.88888889 </v>
   <v>       0.73588334       0.13843334       0.00000000 </v>
   <v>       0.93078333       0.06921667       0.11111111 </v>
   <v>       0.86156666       0.26411666       0.22222222 </v>
   <v>       0.93078333       0.19489999       0.00000000 </v>
   <v>       0.73588334       0.26411666       0.11111111 </v>
   <v>       0.80510001       0.06921667       0.22222222 </v>
   <v>       0.73588334       0.13843334       0.33333333 </v>
   <v>       0.93078333       0.06921667       0.44444444 </v>
   <v>       0.86156666       0.26411666       0.55555556 </v>
   <v>       0.93078333       0.19489999       0.33333333 </v>
   <v>       0.73588334       0.26411666       0.44444444 </v>
   <v>       0.80510001       0.06921667       0.55555556 </v>
   <v>       0.73588334       0.13843334       0.66666667 </v>
   <v>       0.93078333       0.06921667       0.77777778 </v>
   <v>       0.86156666       0.26411666       0.88888889 </v>
   <v>       0.93078333       0.19489999       0.66666667 </v>
   <v>       0.73588334       0.26411666       0.77777778 </v>
   <v>       0.80510001       0.06921667       0.88888889 </v>
   <v>       0.73588334       0.47176667       0.00000000 </v>
   <v>       0.93078333       0.40255000       0.11111111 </v>
   <v>       0.86156666       0.59745000       0.22222222 </v>
   <v>       0.93078333       0.52823333       0.00000000 </v>
   <v>       0.73588334       0.59745000       0.11111111 </v>
   <v>       0.80510001       0.40255000       0.22222222 </v>
   <v>       0.73588334       0.47176667       0.33333333 </v>
   <v>       0.93078333       0.40255000       0.44444444 </v>
   <v>       0.86156666       0.59745000       0.55555556 </v>
   <v>       0.93078333       0.52823333       0.33333333 </v>
   <v>       0.73588334       0.59745000       0.44444444 </v>
   <v>       0.80510001       0.40255000       0.55555556 </v>
   <v>       0.73588334       0.47176667       0.66666667 </v>
   <v>       0.93078333       0.40255000       0.77777778 </v>
   <v>       0.86156666       0.59745000       0.88888889 </v>
   <v>       0.93078333       0.52823333       0.66666667 </v>
   <v>       0.73588334       0.59745000       0.77777778 </v>
   <v>       0.80510001       0.40255000       0.88888889 </v>
   <v>       0.73588334       0.80510001       0.00000000 </v>
   <v>       0.93078333       0.73588334       0.11111111 </v>
   <v>       0.86156666       0.93078333       0.22222222 </v>
   <v>       0.93078333       0.86156666       0.00000000 </v>
   <v>       0.73588334       0.93078333       0.11111111 </v>
   <v>       0.80510001       0.73588334       0.22222222 </v>
   <v>       0.73588334       0.80510001       0.33333333 </v>
   <v>       0.93078333       0.73588334       0.44444444 </v>
   <v>       0.86156666       0.93078333       0.55555556 </v>
   <v>       0.93078333       0.86156666       0.33333333 </v>
   <v>       0.73588334       0.93078333       0.44444444 </v>
   <v>       0.80510001       0.73588334       0.55555556 </v>
   <v>       0.73588334       0.80510001       0.66666667 </v>
   <v>       0.93078333       0.73588334       0.77777778 </v>
   <v>       0.86156666       0.93078333       0.88888889 </v>
   <v>       0.93078333       0.86156666       0.66666667 </v>
   <v>       0.73588334       0.93078333       0.77777778 </v>
   <v>       0.80510001       0.73588334       0.88888889 </v>
   <v>       0.16666667       0.00000000       0.16666667 </v>
   <v>       0.16666667       0.16666667       0.27777778 </v>
   <v>       0.00000000       0.16666667       0.05555556 </v>
   <v>       0.16666667       0.00000000       0.50000000 </v>
   <v>       0.16666667       0.16666667       0.61111111 </v>
   <v>       0.00000000       0.16666667       0.38888889 </v>
   <v>       0.16666667       0.00000000       0.83333333 </v>
   <v>       0.16666667       0.16666667       0.94444444 </v>
   <v>       0.00000000       0.16666667       0.72222222 </v>
   <v>       0.16666667       0.33333333       0.16666667 </v>
   <v>       0.16666667       0.50000000       0.27777778 </v>
   <v>       0.00000000       0.50000000       0.05555556 </v>
   <v>       0.16666667       0.33333333       0.50000000 </v>
   <v>       0.16666667       0.50000000       0.61111111 </v>
   <v>       0.00000000       0.50000000       0.38888889 </v>
   <v>       0.16666667       0.33333333       0.83333333 </v>
   <v>       0.16666667       0.50000000       0.94444444 </v>
   <v>       0.00000000       0.50000000       0.72222222 </v>
   <v>       0.16666667       0.66666667       0.16666667 </v>
   <v>       0.16666667       0.83333333       0.27777778 </v>
   <v>       0.00000000       0.83333333       0.05555556 </v>
   <v>       0.16666667       0.66666667       0.50000000 </v>
   <v>       0.16666667       0.83333333       0.61111111 </v>
   <v>       0.00000000       0.83333333       0.38888889 </v>
   <v>       0.16666667       0.66666667       0.83333333 </v>
   <v>       0.16666667       0.83333333       0.94444444 </v>
   <v>       0.00000000       0.83333333       0.72222222 </v>
   <v>       0.50000000       0.00000000       0.16666667 </v>
   <v>       0.50000000       0.16666667       0.27777778 </v>
   <v>       0.33333333       0.16666667       0.05555556 </v>
   <v>       0.50000000       0.00000000       0.50000000 </v>
   <v>       0.50000000       0.16666667       0.61111111 </v>
   <v>       0.33333333       0.16666667       0.38888889 </v>
   <v>       0.50000000       0.00000000       0.83333333 </v>
   <v>       0.50000000       0.16666667       0.94444444 </v>
   <v>       0.33333333       0.16666667       0.72222222 </v>
   <v>       0.50000000       0.33333333       0.16666667 </v>
   <v>       0.50000000       0.50000000       0.27777778 </v>
   <v>       0.33333333       0.50000000       0.05555556 </v>
   <v>       0.50000000       0.33333333       0.50000000 </v>
   <v>       0.50000000       0.50000000       0.61111111 </v>
   <v>       0.33333333       0.50000000       0.38888889 </v>
   <v>       0.50000000       0.33333333       0.83333333 </v>
   <v>       0.50000000       0.50000000       0.94444444 </v>
   <v>       0.33333333       0.50000000       0.72222222 </v>
   <v>       0.50000000       0.66666667       0.16666667 </v>
   <v>       0.50000000       0.83333333       0.27777778 </v>
   <v>       0.33333333       0.83333333       0.05555556 </v>
   <v>       0.50000000       0.66666667       0.50000000 </v>
   <v>       0.50000000       0.83333333       0.61111111 </v>
   <v>       0.33333333       0.83333333       0.38888889 </v>
   <v>       0.50000000       0.66666667       0.83333333 </v>
   <v>       0.50000000       0.83333333       0.94444444 </v>
   <v>       0.33333333       0.83333333       0.72222222 </v>
   <v>       0.83333333       0.00000000       0.16666667 </v>
   <v>       0.83333333       0.16666667       0.27777778 </v>
   <v>       0.66666667       0.16666667       0.05555556 </v>
   <v>       0.83333333       0.00000000       0.50000000 </v>
   <v>       0.83333333       0.16666667       0.61111111 </v>
   <v>       0.66666667       0.16666667       0.38888889 </v>
   <v>       0.83333333       0.00000000       0.83333333 </v>
   <v>       0.83333333       0.16666667       0.94444444 </v>
   <v>       0.66666667       0.16666667       0.72222222 </v>
   <v>       0.83333333       0.33333333       0.16666667 </v>
   <v>       0.83333333       0.50000000       0.27777778 </v>
   <v>       0.66666667       0.50000000       0.05555556 </v>
   <v>       0.83333333       0.33333333       0.50000000 </v>
   <v>       0.83333333       0.50000000       0.61111111 </v>
   <v>       0.66666667       0.50000000       0.38888889 </v>
   <v>       0.83333333       0.33333333       0.83333333 </v>
   <v>       0.83333333       0.50000000       0.94444444 </v>
   <v>       0.66666667       0.50000000       0.72222222 </v>
   <v>       0.83333333       0.66666667       0.16666667 </v>
   <v>       0.83333333       0.83333333       0.27777778 </v>
   <v>       0.66666667       0.83333333       0.05555556 </v>
   <v>       0.83333333       0.66666667       0.50000000 </v>
   <v>       0.83333333       0.83333333       0.61111111 </v>
   <v>       0.66666667       0.83333333       0.38888889 </v>
   <v>       0.83333333       0.66666667       0.83333333 </v>
   <v>       0.83333333       0.83333333       0.94444444 </v>
   <v>       0.66666667       0.83333333       0.72222222 </v>
  </varray>
 </structure>
 <calculation>
  <scstep>
   <time name="dav">  298.05  298.06</time>
   <time name="total">  298.15  298.17</time>
   <energy>
    <i name="alphaZ">   1803.06568644 </i>
    <i name="ewald"> -48244.28156214 </i>
    <i name="hartreedc"> -27084.92649043 </i>
    <i name="XCdc">   3831.99201685 </i>
    <i name="pawpsdc">  63279.04302504 </i>
    <i name="pawaedc"> -62145.37184510 </i>
    <i name="eentropy">     -0.04403735 </i>
    <i name="bandstr">  -1608.22085142 </i>
    <i name="atom">  78374.96320226 </i>
    <i name="e_fr_energy">   8206.21914415 </i>
    <i name="e_wo_entrp">   8206.26318150 </i>
    <i name="e_0_energy">   8206.24116282 </i>
   </energy>
  </scstep>
  <scstep>
   <time name="dav">  334.76  334.78</time>
   <time name="total">  334.80  334.82</time>
   <energy>
    <i name="e_fr_energy">  -1474.52144429 </i>
    <i name="e_wo_entrp">  -1474.52144429 </i>
    <i name="e_0_energy">  -1474.52144429 </i>
   </energy>
  </scstep>
  <scstep>
   <time name="dav">  334.54  334.54</time>
   <time name="total">  334.58  334.58</time>
   <energy>
    <i name="e_fr_energy">  -2174.06067449 </i>
    <i name="e_wo_entrp">  -2174.06067449 </i>
    <i name="e_0_energy">  -2174.06067449 </i>
   </energy>
  </scstep>
  <scstep>
   <time name="dav">  338.37  338.37</time>
   <time name="total">  338.41  338.42</time>
   <energy>
    <i name="e_fr_energy">  -2186.35291606 </i>
    <i name="e_wo_entrp">  -2186.35291606 </i>
    <i name="e_0_energy">  -2186.35291606 </i>
   </energy>
  </scstep>
  <scstep>
   <time name="dav">  334.15  334.26</time>
   <time name="total">  341.97  342.08</time>
   <energy>
    <i name="e_fr_energy">  -2186.64516175 </i>
    <i name="e_wo_entrp">  -2186.64516175 </i>
    <i name="e_0_energy">  -2186.64516175 </i>
   </energy>
  </scstep>
  <scstep>
   <time name="dav">  322.53  322.56</time>
   <time name="total">  330.20  330.27</time>
   <energy>
    <i name="e_fr_energy">  -1917.19141324 </i>
    <i name="e_wo_entrp">  -1917.19141324 </i>
    <i name="e_0_energy">  -1917.19141324 </i>
   </energy>
  </scstep>
  <scstep>
   <time name="dav">  356.98  357.13</time>
   <time name="total">  364.51  364.66</time>
   <energy>
    <i name="e_fr_energy">  -1915.60742398 </i>
    <i name="e_wo_entrp">  -1915.60742398 </i>
    <i name="e_0_energy">  -1915.60742398 </i>
   </energy>
  </scstep>
  <scstep>
   <time name="dav">  331.98  331.97</time>
   <time name="total">  339.63  339.63</time>
   <energy>
    <i name="e_fr_energy">  -1915.29572862 </i>
    <i name="e_wo_entrp">  -1915.29572862 </i>
    <i name="e_0_energy">  -1915.29572862 </i>
   </energy>
  </scstep>
  <scstep>
   <time name="dav">  326.50  326.60</time>
   <time name="total">  334.13  334.23</time>
   <energy>
    <i name="e_fr_energy">  -1915.53296907 </i>
    <i name="e_wo_entrp">  -1915.53296907 </i>
    <i name="e_0_energy">  -1915.53296907 </i>
   </energy>
  </scstep>
  <scstep>
   <time name="dav">  325.01  325.10</time>
   <time name="total">  333.04  333.14</time>
   <energy>
    <i name="e_fr_energy">  -1915.58818442 </i>
    <i name="e_wo_entrp">  -1915.58818442 </i>
    <i name="e_0_energy">  -1915.58818442 </i>
   </energy>
  </scstep>
  <scstep>
   <time name="dav">  331.69  331.68</time>
   <time name="total">  339.51  339.51</time>
   <energy>
    <i name="e_fr_energy">  -1915.59087489 </i>
    <i name="e_wo_entrp">  -1915.59087489 </i>
    <i name="e_0_energy">  -1915.59087489 </i>
   </energy>
  </scstep>
  <scstep>
   <time name="dav">  334.16  334.16</time>
   <time name="total">  341.91  341.92</time>
   <energy>
    <i name="e_fr_energy">  -1915.59112843 </i>
    <i name="e_wo_entrp">  -1915.59112843 </i>
    <i name="e_0_energy">  -1915.59112843 </i>
   </energy>
  </scstep>
  <scstep>
   <time name="dav">  325.44  325.47</time>
   <time name="total">  333.20  333.24</time>
   <energy>
    <i name="e_fr_energy">  -1915.59125520 </i>
    <i name="e_wo_entrp">  -1915.59125520 </i>
    <i name="e_0_energy">  -1915.59125520 </i>
   </energy>
  </scstep>
  <scstep>
   <time name="dav">  251.82  251.85</time>
   <time name="total">  259.74  259.79</time>
   <energy>
    <i name="e_fr_energy">  -1915.59126839 </i>
    <i name="e_wo_entrp">  -1915.59126839 </i>
    <i name="e_0_energy">  -1915.59126839 </i>
   </energy>
  </scstep>
  <scstep>
   <time name="dav">  237.53  237.56</time>
   <time name="total">  237.63  237.66</time>
   <energy>
    <i name="alphaZ">   1803.06568644 </i>
    <i name="ewald"> -48244.28156214 </i>
    <i name="hartreedc"> -30960.27080613 </i>
    <i name="XCdc">   4088.83064750 </i>
    <i name="pawpsdc"> 243928.57096920 </i>
    <i name="pawaedc">-242860.89912012 </i>
    <i name="eentropy">     -0.00000000 </i>
    <i name="bandstr">  -8045.57028488 </i>
    <i name="atom">  78374.96320226 </i>
    <i name="e_fr_energy">  -1915.59126787 </i>
    <i name="e_wo_entrp">  -1915.59126787 </i>
    <i name="e_0_energy">  -1915.59126787 </i>
   </energy>
  </scstep>
  <structure>
   <crystal>
    <varray name="basis" >
     <v>      14.99190030       0.00000000       0.00000000 </v>
     <v>      -7.49594983      12.98336669       0.00000000 </v>
     <v>       0.00000030       0.00000052      16.37160030 </v>
    </varray>
    <i name="volume">   3186.65568995 </i>
    <varray name="rec_basis" >
     <v>       0.06670268       0.03851081      -0.00000000 </v>
     <v>       0.00000000       0.07702162      -0.00000000 </v>
     <v>       0.00000000       0.00000000       0.06108138 </v>
    </varray>
   </crystal>
   <varray name="positions" >
    <v>       0.06921667       0.13843334       0.00000000 </v>
    <v>       0.26411666       0.06921667       0.11111111 </v>
    <v>       0.19489999       0.26411666       0.22222222 </v>
    <v>       0.26411666       0.19489999       0.00000000 </v>
    <v>       0.06921667       0.26411666       0.11111111 </v>
    <v>       0.13843334       0.06921667       0.22222222 </v>
    <v>       0.06921667       0.13843334       0.33333333 </v>
    <v>       0.26411666       0.06921667       0.44444444 </v>
    <v>       0.19489999       0.26411666       0.55555556 </v>
    <v>       0.26411666       0.19489999       0.33333333 </v>
    <v>       0.06921667       0.26411666       0.44444444 </v>
    <v>       0.13843334       0.06921667       0.55555556 </v>
    <v>       0.06921667       0.13843334       0.66666667 </v>
    <v>       0.26411666       0.06921667       0.77777778 </v>
    <v>       0.19489999       0.26411666       0.88888889 </v>
    <v>       0.26411666       0.19489999       0.66666667 </v>
    <v>       0.06921667       0.26411666       0.77777778 </v>
    <v>       0.13843334       0.06921667       0.88888889 </v>
    <v>       0.06921667       0.47176667       0.00000000 </v>
    <v>       0.26411666       0.40255000       0.11111111 </v>
    <v>       0.19489999       0.59745000       0.22222222 </v>
    <v>       0.26411666       0.52823333       0.00000000 </v>
    <v>       0.06921667       0.59745000       0.11111111 </v>
    <v>       0.13843334       0.40255000       0.22222222 </v>
    <v>       0.06921667       0.47176667       0.33333333 </v>
    <v>       0.26411666       0.40255000       0.44444444 </v>
    <v>       0.19489999       0.59745000       0.55555556 </v>
    <v>       0.26411666       0.52823333       0.33333333 </v>
    <v>       0.06921667       0.59745000       0.44444444 </v>
    <v>       0.13843334       0.40255000       0.55555556 </v>
    <v>       0.06921667       0.47176667       0.66666667 </v>
    <v>       0.26411666       0.40255000       0.77777778 </v>
    <v>       0.19489999       0.59745000       0.88888889 </v>
    <v>       0.26411666       0.52823333       0.66666667 </v>
    <v>       0.06921667       0.59745000       0.77777778 </v>
    <v>       0.13843334       0.40255000       0.88888889 </v>
    <v>       0.06921667       0.80510001       0.00000000 </v>
    <v>       0.26411666       0.73588334       0.11111111 </v>
    <v>       0.19489999       0.93078333       0.22222222 </v>
    <v>       0.26411666       0.86156666       0.00000000 </v>
    <v>       0.06921667       0.93078333       0.11111111 </v>
    <v>       0.13843334       0.73588334       0.22222222 </v>
    <v>       0.06921667       0.80510001       0.33333333 </v>
    <v>       0.26411666       0.73588334       0.44444444 </v>
    <v>       0.19489999       0.93078333       0.55555556 </v>
    <v>       0.26411666       0.86156666       0.33333333 </v>
    <v>       0.06921667       0.93078333       0.44444444 </v>
    <v>       0.13843334       0.73588334       0.55555556 </v>
    <v>       0.06921667       0.80510001       0.66666667 </v>
    <v>       0.26411666       0.73588334       0.77777778 </v>
    <v>       0.19489999       0.93078333       0.88888889 </v>
    <v>       0.26411666       0.86156666       0.66666667 </v>
    <v>       0.06921667       0.93078333       0.77777778 </v>
    <v>       0.13843334       0.73588334       0.88888889 </v>
    <v>       0.40255000       0.13843334       0.00000000 </v>
    <v>       0.59745000       0.06921667       0.11111111 </v>
    <v>       0.52823333       0.26411666       0.22222222 </v>
    <v>       0.59745000       0.19489999       0.00000000 </v>
    <v>       0.40255000       0.26411666       0.11111111 </v>
    <v>       0.47176667       0.06921667       0.22222222 </v>
    <v>       0.40255000       0.13843334       0.33333333 </v>
    <v>       0.59745000       0.06921667       0.44444444 </v>
    <v>       0.52823333       0.26411666       0.55555556 </v>
    <v>       0.59745000       0.19489999       0.33333333 </v>
    <v>       0.40255000       0.26411666       0.44444444 </v>
    <v>       0.47176667       0.06921667       0.55555556 </v>
    <v>       0.40255000       0.13843334       0.66666667 </v>
    <v>       0.59745000       0.06921667       0.77777778 </v>
    <v>       0.52823333       0.26411666       0.88888889 </v>
    <v>       0.59745000       0.19489999       0.66666667 </v>
    <v>       0.40255000       0.26411666       0.77777778 </v>
    <v>       0.47176667       0.06921667       0.88888889 </v>
    <v>       0.40255000       0.47176667       0.00000000 </v>
    <v>       0.59745000       0.40255000       0.11111111 </v>
    <v>       0.52823333       0.59745000       0.22222222 </v>
    <v>       0.59745000       0.52823333       0.00000000 </v>
    <v>       0.40255000       0.59745000       0.11111111 </v>
    <v>       0.47176667       0.40255000       0.22222222 </v>
    <v>       0.40255000       0.47176667       0.33333333 </v>
    <v>       0.59745000       0.40255000       0.44444444 </v>
    <v>       0.52823333       0.59745000       0.55555556 </v>
    <v>       0.59745000       0.52823333       0.33333333 </v>
    <v>       0.40255000       0.59745000       0.44444444 </v>
    <v>       0.47176667       0.40255000       0.55555556 </v>
    <v>       0.40255000       0.47176667       0.66666667 </v>
    <v>       0.59745000       0.40255000       0.77777778 </v>
    <v>       0.52823333       0.59745000       0.88888889 </v>
    <v>       0.59745000       0.52823333       0.66666667 </v>
    <v>       0.40255000       0.59745000       0.77777778 </v>
    <v>       0.47176667       0.40255000       0.88888889 </v>
    <v>       0.40255000       0.80510001       0.00000000 </v>
    <v>       0.59745000       0.73588334       0.11111111 </v>
    <v>       0.52823333       0.93078333       0.22222222 </v>
    <v>       0.59745000       0.86156666       0.00000000 </v>
    <v>       0.40255000       0.93078333       0.11111111 </v>
    <v>       0.47176667       0.73588334       0.22222222 </v>
    <v>       0.40255000       0.80510001       0.33333333 </v>
    <v>       0.59745000       0.73588334       0.44444444 </v>
    <v>       0.52823333       0.93078333       0.55555556 </v>
    <v>       0.59745000       0.86156666       0.33333333 </v>
    <v>       0.40255000       0.93078333       0.44444444 </v>
    <v>       0.47176667       0.73588334       0.55555556 </v>
    <v>       0.40255000       0.80510001       0.66666667 </v>
    <v>       0.59745000       0.73588334       0.77777778 </v>
    <v>       0.52823333       0.93078333       0.88888889 </v>
    <v>       0.59745000       0.86156666       0.66666667 </v>
    <v>       0.40255000       0.93078333       0.77777778 </v>
    <v>       0.47176667       0.73588334       0.88888889 </v>
    <v>       0.73588334       0.13843334       0.00000000 </v>
    <v>       0.93078333       0.06921667       0.11111111 </v>
    <v>       0.86156666       0.26411666       0.22222222 </v>
    <v>       0.93078333       0.19489999       0.00000000 </v>
    <v>       0.73588334       0.26411666       0.11111111 </v>
    <v>       0.80510001       0.06921667       0.22222222 </v>
    <v>       0.73588334       0.13843334       0.33333333 </v>
    <v>       0.93078333       0.06921667       0.44444444 </v>
    <v>       0.86156666       0.26411666       0.55555556 </v>
    <v>       0.93078333       0.19489999       0.33333333 </v>
    <v>       0.73588334       0.26411666       0.44444444 </v>
    <v>       0.80510001       0.06921667       0.55555556 </v>
    <v>       0.73588334       0.13843334       0.66666667 </v>
    <v>       0.93078333       0.06921667       0.77777778 </v>
    <v>       0.86156666       0.26411666       0.88888889 </v>
    <v>       0.93078333       0.19489999       0.66666667 </v>
    <v>       0.73588334       0.26411666       0.77777778 </v>
    <v>       0.80510001       0.06921667       0.88888889 </v>
    <v>       0.73588334       0.47176667       0.00000000 </v>
    <v>       0.93078333       0.40255000       0.11111111 </v>
    <v>       0.86156666       0.59745000       0.22222222 </v>
    <v>       0.93078333       0.52823333       0.00000000 </v>
    <v>       0.73588334       0.59745000       0.11111111 </v>
    <v>       0.80510001       0.40255000       0.22222222 </v>
    <v>       0.73588334       0.47176667       0.33333333 </v>
    <v>       0.93078333       0.40255000       0.44444444 </v>
    <v>       0.86156666       0.59745000       0.55555556 </v>
    <v>       0.93078333       0.52823333       0.33333333 </v>
    <v>       0.73588334       0.59745000       0.44444444 </v>
    <v>       0.80510001       0.40255000       0.55555556 </v>
    <v>       0.73588334       0.47176667       0.66666667 </v>
    <v>       0.93078333       0.40255000       0.77777778 </v>
    <v>       0.86156666       0.59745000       0.88888889 </v>
    <v>       0.93078333       0.52823333       0.66666667 </v>
    <v>       0.73588334       0.59745000       0.77777778 </v>
    <v>       0.80510001       0.40255000       0.88888889 </v>
    <v>       0.73588334       0.80510001       0.00000000 </v>
    <v>       0.93078333       0.73588334       0.11111111 </v>
    <v>       0.86156666       0.93078333       0.22222222 </v>
    <v>       0.93078333       0.86156666       0.00000000 </v>
    <v>       0.73588334       0.93078333       0.11111111 </v>
    <v>       0.80510001       0.73588334       0.22222222 </v>
    <v>       0.73588334       0.80510001       0.33333333 </v>
    <v>       0.93078333       0.73588334       0.44444444 </v>
    <v>       0.86156666       0.93078333       0.55555556 </v>
    <v>       0.93078333       0.86156666       0.33333333 </v>
    <v>       0.73588334       0.93078333       0.44444444 </v>
    <v>       0.80510001       0.73588334       0.55555556 </v>
    <v>       0.73588334       0.80510001       0.66666667 </v>
    <v>       0.93078333       0.73588334       0.77777778 </v>
    <v>       0.86156666       0.93078333       0.88888889 </v>
    <v>       0.93078333       0.86156666       0.66666667 </v>
    <v>       0.73588334       0.93078333       0.77777778 </v>
    <v>       0.80510001       0.73588334       0.88888889 </v>
    <v>       0.16666667       0.00000000       0.16666667 </v>
    <v>       0.16666667       0.16666667       0.27777778 </v>
    <v>       0.00000000       0.16666667       0.05555556 </v>
    <v>       0.16666667       0.00000000       0.50000000 </v>
    <v>       0.16666667       0.16666667       0.61111111 </v>
    <v>       0.00000000       0.16666667       0.38888889 </v>
    <v>       0.16666667       0.00000000       0.83333333 </v>
    <v>       0.16666667       0.16666667       0.94444444 </v>
    <v>       0.00000000       0.16666667       0.72222222 </v>
    <v>       0.16666667       0.33333333       0.16666667 </v>
    <v>       0.16666667       0.50000000       0.27777778 </v>
    <v>       0.00000000       0.50000000       0.05555556 </v>
    <v>       0.16666667       0.33333333       0.50000000 </v>
    <v>       0.16666667       0.50000000       0.61111111 </v>
    <v>       0.00000000       0.50000000       0.38888889 </v>
    <v>       0.16666667       0.33333333       0.83333333 </v>
    <v>       0.16666667       0.50000000       0.94444444 </v>
    <v>       0.00000000       0.50000000       0.72222222 </v>
    <v>       0.16666667       0.66666667       0.16666667 </v>
    <v>       0.16666667       0.83333333       0.27777778 </v>
    <v>       0.00000000       0.83333333       0.05555556 </v>
    <v>       0.16666667       0.66666667       0.50000000 </v>
    <v>       0.16666667       0.83333333       0.61111111 </v>
    <v>       0.00000000       0.83333333       0.38888889 </v>
    <v>       0.16666667       0.66666667       0.83333333 </v>
    <v>       0.16666667       0.83333333       0.94444444 </v>
    <v>       0.00000000       0.83333333       0.72222222 </v>
    <v>       0.50000000       0.00000000       0.16666667 </v>
    <v>       0.50000000       0.16666667       0.27777778 </v>
    <v>       0.33333333       0.16666667       0.05555556 </v>
    <v>       0.50000000       0.00000000       0.50000000 </v>
    <v>       0.50000000       0.16666667       0.61111111 </v>
    <v>       0.33333333       0.16666667       0.38888889 </v>
    <v>       0.50000000       0.00000000       0.83333333 </v>
    <v>       0.50000000       0.16666667       0.94444444 </v>
    <v>       0.33333333       0.16666667       0.72222222 </v>
    <v>       0.50000000       0.33333333       0.16666667 </v>
    <v>       0.50000000       0.50000000       0.27777778 </v>
    <v>       0.33333333       0.50000000       0.05555556 </v>
    <v>       0.50000000       0.33333333       0.50000000 </v>
    <v>       0.50000000       0.50000000       0.61111111 </v>
    <v>       0.33333333       0.50000000       0.38888889 </v>
    <v>       0.50000000       0.33333333       0.83333333 </v>
    <v>       0.50000000       0.50000000       0.94444444 </v>
    <v>       0.33333333       0.50000000       0.72222222 </v>
    <v>       0.50000000       0.66666667       0.16666667 </v>
    <v>       0.50000000       0.83333333       0.27777778 </v>
    <v>       0.33333333       0.83333333       0.05555556 </v>
    <v>       0.50000000       0.66666667       0.50000000 </v>
    <v>       0.50000000       0.83333333       0.61111111 </v>
    <v>       0.33333333       0.83333333       0.38888889 </v>
    <v>       0.50000000       0.66666667       0.83333333 </v>
    <v>       0.50000000       0.83333333       0.94444444 </v>
    <v>       0.33333333       0.83333333       0.72222222 </v>
    <v>       0.83333333       0.00000000       0.16666667 </v>
    <v>       0.83333333       0.16666667       0.27777778 </v>
    <v>       0.66666667       0.16666667       0.05555556 </v>
    <v>       0.83333333       0.00000000       0.50000000 </v>
    <v>       0.83333333       0.16666667       0.61111111 </v>
    <v>       0.66666667       0.16666667       0.38888889 </v>
    <v>       0.83333333       0.00000000       0.83333333 </v>
    <v>       0.83333333       0.16666667       0.94444444 </v>
    <v>       0.66666667       0.16666667       0.72222222 </v>
    <v>       0.83333333       0.33333333       0.16666667 </v>
    <v>       0.83333333       0.50000000       0.27777778 </v>
    <v>       0.66666667       0.50000000       0.05555556 </v>
    <v>       0.83333333       0.33333333       0.50000000 </v>
    <v>       0.83333333       0.50000000       0.61111111 </v>
    <v>       0.66666667       0.50000000       0.38888889 </v>
    <v>       0.83333333       0.33333333       0.83333333 </v>
    <v>       0.83333333       0.50000000       0.94444444 </v>
    <v>       0.66666667       0.50000000       0.72222222 </v>
    <v>       0.83333333       0.66666667       0.16666667 </v>
    <v>       0.83333333       0.83333333       0.27777778 </v>
    <v>       0.66666667       0.83333333       0.05555556 </v>
    <v>       0.83333333       0.66666667       0.50000000 </v>
    <v>       0.83333333       0.83333333       0.61111111 </v>
    <v>       0.66666667       0.83333333       0.38888889 </v>
    <v>       0.83333333       0.66666667       0.83333333 </v>
    <v>       0.83333333       0.83333333       0.94444444 </v>
    <v>       0.66666667       0.83333333       0.72222222 </v>
   </varray>
  </structure>
  <varray name="forces" >
   <v>      -0.00000001      -0.48254518      -0.00000000 </v>
   <v>       0.41789638      -0.24127259       0.00000000 </v>
   <v>       0.41789639       0.24127259       0.00000000 </v>
   <v>       0.00000001       0.48254518      -0.00000000 </v>
   <v>      -0.41789638       0.24127259      -0.00000000 </v>
   <v>      -0.41789639      -0.24127259      -0.00000000 </v>
   <v>      -0.00000001      -0.48254518       0.00000000 </v>
   <v>       0.41789638      -0.24127259       0.00000000 </v>
   <v>       0.41789639       0.24127259       0.00000000 </v>
   <v>       0.00000001       0.48254518       0.00000000 </v>
   <v>      -0.41789638       0.24127259       0.00000000 </v>
   <v>      -0.41789639      -0.24127259      -0.00000000 </v>
   <v>      -0.00000001      -0.48254518       0.00000000 </v>
   <v>       0.41789638      -0.24127259       0.00000000 </v>
   <v>       0.41789639       0.24127259       0.00000000 </v>
   <v>       0.00000001       0.48254518       0.00000000 </v>
   <v>      -0.41789638       0.24127259       0.00000000 </v>
   <v>      -0.41789639      -0.24127259      -0.00000000 </v>
   <v>      -0.00000001      -0.48254518       0.00000000 </v>
   <v>       0.41789638      -0.24127259       0.00000000 </v>
   <v>       0.41789639       0.24127259       0.00000000 </v>
   <v>       0.00000001       0.48254518      -0.00000000 </v>
   <v>      -0.41789638       0.24127259      -0.00000000 </v>
   <v>      -0.41789639      -0.24127259      -0.00000000 </v>
   <v>      -0.00000001      -0.48254518       0.00000000 </v>
   <v>       0.41789638      -0.24127259      -0.00000000 </v>
   <v>       0.41789639       0.24127259       0.00000000 </v>
   <v>       0.00000001       0.48254518       0.00000000 </v>
   <v>      -0.41789638       0.24127259      -0.00000000 </v>
   <v>      -0.41789639      -0.24127259      -0.00000000 </v>
   <v>      -0.00000001      -0.48254518      -0.00000000 </v>
   <v>       0.41789638      -0.24127259       0.00000000 </v>
   <v>       0.41789639       0.24127259       0.00000000 </v>
   <v>       0.00000001       0.48254518       0.00000000 </v>
   <v>      -0.41789638       0.24127259       0.00000000 </v>
   <v>      -0.41789639      -0.24127259      -0.00000000 </v>
   <v>      -0.00000001      -0.48254518       0.00000000 </v>
   <v>       0.41789638      -0.24127259       0.00000000 </v>
   <v>       0.41789639       0.24127259       0.00000000 </v>
   <v>       0.00000001       0.48254518      -0.00000000 </v>
   <v>      -0.41789638       0.24127259      -0.00000000 </v>
   <v>      -0.41789639      -0.24127259      -0.00000000 </v>
   <v>      -0.00000001      -0.48254518      -0.00000000 </v>
   <v>       0.41789638      -0.24127259       0.00000000 </v>
   <v>       0.41789639       0.24127259       0.00000000 </v>
   <v>       0.00000001       0.48254518       0.00000000 </v>
   <v>      -0.41789638       0.24127259       0.00000000 </v>
   <v>      -0.41789639      -0.24127259      -0.00000000 </v>
   <v>      -0.00000001      -0.48254518       0.00000000 </v>
   <v>       0.41789638      -0.24127259       0.00000000 </v>
   <v>       0.41789639       0.24127259       0.00000000 </v>
   <v>       0.00000001       0.48254518       0.00000000 </v>
   <v>      -0.41789638       0.24127259      -0.00000000 </v>
   <v>      -0.41789639      -0.24127259      -0.00000000 </v>
   <v>      -0.00000001      -0.48254518      -0.00000000 </v>
   <v>       0.41789638      -0.24127259       0.00000000 </v>
   <v>       0.41789639       0.24127259       0.00000000 </v>
   <v>       0.00000001       0.48254518      -0.00000000 </v>
   <v>      -0.41789638       0.24127259      -0.00000000 </v>
   <v>      -0.41789639      -0.24127259      -0.00000000 </v>
   <v>      -0.00000001      -0.48254518       0.00000000 </v>
   <v>       0.41789638      -0.24127259       0.00000000 </v>
   <v>       0.41789639       0.24127259       0.00000000 </v>
   <v>       0.00000001       0.48254518       0.00000000 </v>
   <v>      -0.41789638       0.24127259       0.00000000 </v>
   <v>      -0.41789639      -0.24127259      -0.00000000 </v>
   <v>      -0.00000001      -0.48254518      -0.00000000 </v>
[...]
       <r>     3.9830     0.0000  1296.0000 </r>
       <r>     4.0935     0.0000  1296.0000 </r>
       <r>     4.2040     0.0000  1296.0000 </r>
       <r>     4.3145     0.0000  1296.0000 </r>
       <r>     4.4250     0.0000  1296.0000 </r>
       <r>     4.5356     0.0000  1296.0000 </r>
       <r>     4.6461     0.0000  1296.0000 </r>
       <r>     4.7566     0.0000  1296.0000 </r>
       <r>     4.8671     0.0000  1296.0000 </r>
       <r>     4.9776     0.0000  1296.0000 </r>
       <r>     5.0882     0.0000  1296.0000 </r>
       <r>     5.1987     0.0000  1296.0000 </r>
       <r>     5.3092     0.0000  1296.0000 </r>
       <r>     5.4197     0.0000  1296.0000 </r>
       <r>     5.5302     0.0000  1296.0000 </r>
       <r>     5.6408     0.0000  1296.0000 </r>
       <r>     5.7513     0.0000  1296.0000 </r>
       <r>     5.8618     0.0000  1296.0000 </r>
       <r>     5.9723     0.0000  1296.0000 </r>
       <r>     6.0828     0.0000  1296.0000 </r>
       <r>     6.1934     0.0000  1296.0000 </r>
       <r>     6.3039     0.0000  1296.0000 </r>
       <r>     6.4144     0.0000  1296.0000 </r>
       <r>     6.5249     0.0000  1296.0000 </r>
       <r>     6.6354     0.0001  1296.0000 </r>
       <r>     6.7460     0.1835  1296.0203 </r>
       <r>     6.8565     1.9717  1296.2382 </r>
       <r>     6.9670     3.7160  1296.6489 </r>
       <r>     7.0775     5.0022  1297.2018 </r>
       <r>     7.1880     6.1441  1297.8808 </r>
       <r>     7.2986     7.2479  1298.6818 </r>
       <r>     7.4091     8.3041  1299.5996 </r>
       <r>     7.5196     9.3581  1300.6339 </r>
       <r>     7.6301    10.5267  1301.7973 </r>
       <r>     7.7406    11.7652  1303.0976 </r>
       <r>     7.8512    12.8472  1304.5175 </r>
       <r>     7.9617    13.9578  1306.0601 </r>
       <r>     8.0722    15.4999  1307.7732 </r>
       <r>     8.1827    16.9644  1309.6481 </r>
       <r>     8.2932    18.1252  1311.6513 </r>
       <r>     8.4038    19.9689  1313.8582 </r>
       <r>     8.5143    22.1258  1316.3036 </r>
       <r>     8.6248    23.8782  1318.9426 </r>
       <r>     8.7353    26.6623  1321.8893 </r>
       <r>     8.8459    31.7888  1325.4027 </r>
       <r>     8.9564    33.9803  1329.1582 </r>
       <r>     9.0669    33.0779  1332.8139 </r>
       <r>     9.1774    32.4615  1336.4016 </r>
       <r>     9.2879    31.8460  1339.9212 </r>
       <r>     9.3985    30.9735  1343.3444 </r>
       <r>     9.5090    31.7772  1346.8565 </r>
       <r>     9.6195    35.5968  1350.7906 </r>
       <r>     9.7300    46.9824  1355.9832 </r>
       <r>     9.8405    78.5515  1364.6647 </r>
       <r>     9.9511   129.2504  1378.9495 </r>
       <r>    10.0616   163.4768  1397.0170 </r>
       <r>    10.1721   135.8132  1412.0272 </r>
       <r>    10.2826   121.6107  1425.4676 </r>
       <r>    10.3931   132.7888  1440.1435 </r>
       <r>    10.5037   179.7377  1460.0082 </r>
       <r>    10.6142   254.6157  1488.1484 </r>
       <r>    10.7247   198.5145  1510.0883 </r>
       <r>    10.8352   154.5461  1527.1688 </r>
       <r>    10.9457   107.8483  1539.0882 </r>
       <r>    11.0563   106.9020  1550.9031 </r>
       <r>    11.1668    97.5204  1561.6811 </r>
       <r>    11.2773    51.4555  1567.3680 </r>
       <r>    11.3878     5.7093  1567.9990 </r>
       <r>    11.4983     0.0093  1568.0000 </r>
       <r>    11.6089     0.0000  1568.0000 </r>
       <r>    11.7194     0.0000  1568.0000 </r>
       <r>    11.8299     0.0000  1568.0000 </r>
       <r>    11.9404     0.0000  1568.0000 </r>
       <r>    12.0509     0.0000  1568.0000 </r>
       <r>    12.1615     0.0000  1568.0000 </r>
       <r>    12.2720     0.0000  1568.0000 </r>
       <r>    12.3825     0.0000  1568.0000 </r>
       <r>    12.4930     0.0000  1568.0000 </r>
       <r>    12.6035     0.0000  1568.0000 </r>
       <r>    12.7141     0.0000  1568.0000 </r>
       <r>    12.8246     0.0000  1568.0000 </r>
      </set>
     </set>
    </array>
   </total>
  </dos>
 </calculation>
 <structure name="finalpos" >
  <crystal>
   <varray name="basis" >
    <v>      14.99190030       0.00000000       0.00000000 </v>
    <v>      -7.49594983      12.98336669       0.00000000 </v>
    <v>       0.00000030       0.00000052      16.37160030 </v>
   </varray>
   <i name="volume">   3186.65568995 </i>
   <varray name="rec_basis" >
    <v>       0.06670268       0.03851081      -0.00000000 </v>
    <v>       0.00000000       0.07702162      -0.00000000 </v>
    <v>       0.00000000       0.00000000       0.06108138 </v>
   </varray>
  </crystal>
  <varray name="positions" >
   <v>       0.06921667       0.13843334       0.00000000 </v>
   <v>       0.26411666       0.06921667       0.11111111 </v>
   <v>       0.19489999       0.26411666       0.22222222 </v>
   <v>       0.26411666       0.19489999       0.00000000 </v>
   <v>       0.06921667       0.26411666       0.11111111 </v>
   <v>       0.13843334       0.06921667       0.22222222 </v>
   <v>       0.06921667       0.13843334       0.33333333 </v>
   <v>       0.26411666       0.06921667       0.44444444 </v>
   <v>       0.19489999       0.26411666       0.55555556 </v>
   <v>       0.26411666       0.19489999       0.33333333 </v>
   <v>       0.06921667       0.26411666       0.44444444 </v>
   <v>       0.13843334       0.06921667       0.55555556 </v>
   <v>       0.06921667       0.13843334       0.66666667 </v>
   <v>       0.26411666       0.06921667       0.77777778 </v>
   <v>       0.19489999       0.26411666       0.88888889 </v>
   <v>       0.26411666       0.19489999       0.66666667 </v>
   <v>       0.06921667       0.26411666       0.77777778 </v>
   <v>       0.13843334       0.06921667       0.88888889 </v>
   <v>       0.06921667       0.47176667       0.00000000 </v>
   <v>       0.26411666       0.40255000       0.11111111 </v>
   <v>       0.19489999       0.59745000       0.22222222 </v>
   <v>       0.26411666       0.52823333       0.00000000 </v>
   <v>       0.06921667       0.59745000       0.11111111 </v>
   <v>       0.13843334       0.40255000       0.22222222 </v>
   <v>       0.06921667       0.47176667       0.33333333 </v>
   <v>       0.26411666       0.40255000       0.44444444 </v>
   <v>       0.19489999       0.59745000       0.55555556 </v>
   <v>       0.26411666       0.52823333       0.33333333 </v>
   <v>       0.06921667       0.59745000       0.44444444 </v>
   <v>       0.13843334       0.40255000       0.55555556 </v>
   <v>       0.06921667       0.47176667       0.66666667 </v>
   <v>       0.26411666       0.40255000       0.77777778 </v>
   <v>       0.19489999       0.59745000       0.88888889 </v>
   <v>       0.26411666       0.52823333       0.66666667 </v>
   <v>       0.06921667       0.59745000       0.77777778 </v>
   <v>       0.13843334       0.40255000       0.88888889 </v>
   <v>       0.06921667       0.80510001       0.00000000 </v>
   <v>       0.26411666       0.73588334       0.11111111 </v>
   <v>       0.19489999       0.93078333       0.22222222 </v>
   <v>       0.26411666       0.86156666       0.00000000 </v>
   <v>       0.06921667       0.93078333       0.11111111 </v>
   <v>       0.13843334       0.73588334       0.22222222 </v>
   <v>       0.06921667       0.80510001       0.33333333 </v>
   <v>       0.26411666       0.73588334       0.44444444 </v>
   <v>       0.19489999       0.93078333       0.55555556 </v>
   <v>       0.26411666       0.86156666       0.33333333 </v>
   <v>       0.06921667       0.93078333       0.44444444 </v>
   <v>       0.13843334       0.73588334       0.55555556 </v>
   <v>       0.06921667       0.80510001       0.66666667 </v>
   <v>       0.26411666       0.73588334       0.77777778 </v>
   <v>       0.19489999       0.93078333       0.88888889 </v>
   <v>       0.26411666       0.86156666       0.66666667 </v>
   <v>       0.06921667       0.93078333       0.77777778 </v>
   <v>       0.13843334       0.73588334       0.88888889 </v>
   <v>       0.40255000       0.13843334       0.00000000 </v>
   <v>       0.59745000       0.06921667       0.11111111 </v>
   <v>       0.52823333       0.26411666       0.22222222 </v>
   <v>       0.59745000       0.19489999       0.00000000 </v>
   <v>       0.40255000       0.26411666       0.11111111 </v>
   <v>       0.47176667       0.06921667       0.22222222 </v>
   <v>       0.40255000       0.13843334       0.33333333 </v>
   <v>       0.59745000       0.06921667       0.44444444 </v>
   <v>       0.52823333       0.26411666       0.55555556 </v>
   <v>       0.59745000       0.19489999       0.33333333 </v>
   <v>       0.40255000       0.26411666       0.44444444 </v>
   <v>       0.47176667       0.06921667       0.55555556 </v>
   <v>       0.40255000       0.13843334       0.66666667 </v>
   <v>       0.59745000       0.06921667       0.77777778 </v>
   <v>       0.52823333       0.26411666       0.88888889 </v>
   <v>       0.59745000       0.19489999       0.66666667 </v>
   <v>       0.40255000       0.26411666       0.77777778 </v>
   <v>       0.47176667       0.06921667       0.88888889 </v>
   <v>       0.40255000       0.47176667       0.00000000 </v>
   <v>       0.59745000       0.40255000       0.11111111 </v>
   <v>       0.52823333       0.59745000       0.22222222 </v>
   <v>       0.59745000       0.52823333       0.00000000 </v>
   <v>       0.40255000       0.59745000       0.11111111 </v>
   <v>       0.47176667       0.40255000       0.22222222 </v>
   <v>       0.40255000       0.47176667       0.33333333 </v>
   <v>       0.59745000       0.40255000       0.44444444 </v>
   <v>       0.52823333       0.59745000       0.55555556 </v>
   <v>       0.59745000       0.52823333       0.33333333 </v>
   <v>       0.40255000       0.59745000       0.44444444 </v>
   <v>       0.47176667       0.40255000       0.55555556 </v>
   <v>       0.40255000       0.47176667       0.66666667 </v>
   <v>       0.59745000       0.40255000       0.77777778 </v>
   <v>       0.52823333       0.59745000       0.88888889 </v>
   <v>       0.59745000       0.52823333       0.66666667 </v>
   <v>       0.40255000       0.59745000       0.77777778 </v>
   <v>       0.47176667       0.40255000       0.88888889 </v>
   <v>       0.40255000       0.80510001       0.00000000 </v>
   <v>       0.59745000       0.73588334       0.11111111 </v>
   <v>       0.52823333       0.93078333       0.22222222 </v>
   <v>       0.59745000       0.86156666       0.00000000 </v>
   <v>       0.40255000       0.93078333       0.11111111 </v>
   <v>       0.47176667       0.73588334       0.22222222 </v>
   <v>       0.40255000       0.80510001       0.33333333 </v>
   <v>       0.59745000       0.73588334       0.44444444 </v>
   <v>       0.52823333       0.93078333       0.55555556 </v>
   <v>       0.59745000       0.86156666       0.33333333 </v>
   <v>       0.40255000       0.93078333       0.44444444 </v>
   <v>       0.47176667       0.73588334       0.55555556 </v>
   <v>       0.40255000       0.80510001       0.66666667 </v>
   <v>       0.59745000       0.73588334       0.77777778 </v>
   <v>       0.52823333       0.93078333       0.88888889 </v>
   <v>       0.59745000       0.86156666       0.66666667 </v>
   <v>       0.40255000       0.93078333       0.77777778 </v>
   <v>       0.47176667       0.73588334       0.88888889 </v>
   <v>       0.73588334       0.13843334       0.00000000 </v>
   <v>       0.93078333       0.06921667       0.11111111 </v>
   <v>       0.86156666       0.26411666       0.22222222 </v>
   <v>       0.93078333       0.19489999       0.00000000 </v>
   <v>       0.73588334       0.26411666       0.11111111 </v>
   <v>       0.80510001       0.06921667       0.22222222 </v>
   <v>       0.73588334       0.13843334       0.33333333 </v>
   <v>       0.93078333       0.06921667       0.44444444 </v>
   <v>       0.86156666       0.26411666       0.55555556 </v>
   <v>       0.93078333       0.19489999       0.33333333 </v>
   <v>       0.73588334       0.26411666       0.44444444 </v>
   <v>       0.80510001       0.06921667       0.55555556 </v>
   <v>       0.73588334       0.13843334       0.66666667 </v>
   <v>       0.93078333       0.06921667       0.77777778 </v>
   <v>       0.86156666       0.26411666       0.88888889 </v>
   <v>       0.93078333       0.19489999       0.66666667 </v>
   <v>       0.73588334       0.26411666       0.77777778 </v>
   <v>       0.80510001       0.06921667       0.88888889 </v>
   <v>       0.73588334       0.47176667       0.00000000 </v>
   <v>       0.93078333       0.40255000       0.11111111 </v>
   <v>       0.86156666       0.59745000       0.22222222 </v>
   <v>       0.93078333       0.52823333       0.00000000 </v>
   <v>       0.73588334       0.59745000       0.11111111 </v>
   <v>       0.80510001       0.40255000       0.22222222 </v>
   <v>       0.73588334       0.47176667       0.33333333 </v>
   <v>       0.93078333       0.40255000       0.44444444 </v>
   <v>       0.86156666       0.59745000       0.55555556 </v>
   <v>       0.93078333       0.52823333       0.33333333 </v>
   <v>       0.73588334       0.59745000       0.44444444 </v>
   <v>       0.80510001       0.40255000       0.55555556 </v>
   <v>       0.73588334       0.47176667       0.66666667 </v>
   <v>       0.93078333       0.40255000       0.77777778 </v>
   <v>       0.86156666       0.59745000       0.88888889 </v>
   <v>       0.93078333       0.52823333       0.66666667 </v>
   <v>       0.73588334       0.59745000       0.77777778 </v>
   <v>       0.80510001       0.40255000       0.88888889 </v>
   <v>       0.73588334       0.80510001       0.00000000 </v>
   <v>       0.93078333       0.73588334       0.11111111 </v>
   <v>       0.86156666       0.93078333       0.22222222 </v>
   <v>       0.93078333       0.86156666       0.00000000 </v>
   <v>       0.73588334       0.93078333       0.11111111 </v>
   <v>       0.80510001       0.73588334       0.22222222 </v>
   <v>       0.73588334       0.80510001       0.33333333 </v>
   <v>       0.93078333       0.73588334       0.44444444 </v>
   <v>       0.86156666       0.93078333       0.55555556 </v>
   <v>       0.93078333       0.86156666       0.33333333 </v>
   <v>       0.73588334       0.93078333       0.44444444 </v>
   <v>       0.80510001       0.73588334       0.55555556 </v>
   <v>       0.73588334       0.80510001       0.66666667 </v>
   <v>       0.93078333       0.73588334       0.77777778 </v>
   <v>       0.86156666       0.93078333       0.88888889 </v>
   <v>       0.93078333       0.86156666       0.66666667 </v>
   <v>       0.73588334       0.93078333       0.77777778 </v>
   <v>       0.80510001       0.73588334       0.88888889 </v>
   <v>       0.16666667       0.00000000       0.16666667 </v>
   <v>       0.16666667       0.16666667       0.27777778 </v>
   <v>       0.00000000       0.16666667       0.05555556 </v>
   <v>       0.16666667       0.00000000       0.50000000 </v>
   <v>       0.16666667       0.16666667       0.61111111 </v>
   <v>       0.00000000       0.16666667       0.38888889 </v>
   <v>       0.16666667       0.00000000       0.83333333 </v>
   <v>       0.16666667       0.16666667       0.94444444 </v>
   <v>       0.00000000       0.16666667       0.72222222 </v>
   <v>       0.16666667       0.33333333       0.16666667 </v>
   <v>       0.16666667       0.50000000       0.27777778 </v>
   <v>       0.00000000       0.50000000       0.05555556 </v>
   <v>       0.16666667       0.33333333       0.50000000 </v>
   <v>       0.16666667       0.50000000       0.61111111 </v>
   <v>       0.00000000       0.50000000       0.38888889 </v>
   <v>       0.16666667       0.33333333       0.83333333 </v>
   <v>       0.16666667       0.50000000       0.94444444 </v>
   <v>       0.00000000       0.50000000       0.72222222 </v>
   <v>       0.16666667       0.66666667       0.16666667 </v>
   <v>       0.16666667       0.83333333       0.27777778 </v>
   <v>       0.00000000       0.83333333       0.05555556 </v>
   <v>       0.16666667       0.66666667       0.50000000 </v>
   <v>       0.16666667       0.83333333       0.61111111 </v>
   <v>       0.00000000       0.83333333       0.38888889 </v>
   <v>       0.16666667       0.66666667       0.83333333 </v>
   <v>       0.16666667       0.83333333       0.94444444 </v>
   <v>       0.00000000       0.83333333       0.72222222 </v>
   <v>       0.50000000       0.00000000       0.16666667 </v>
   <v>       0.50000000       0.16666667       0.27777778 </v>
   <v>       0.33333333       0.16666667       0.05555556 </v>
   <v>       0.50000000       0.00000000       0.50000000 </v>
   <v>       0.50000000       0.16666667       0.61111111 </v>
   <v>       0.33333333       0.16666667       0.38888889 </v>
   <v>       0.50000000       0.00000000       0.83333333 </v>
   <v>       0.50000000       0.16666667       0.94444444 </v>
   <v>       0.33333333       0.16666667       0.72222222 </v>
   <v>       0.50000000       0.33333333       0.16666667 </v>
   <v>       0.50000000       0.50000000       0.27777778 </v>
   <v>       0.33333333       0.50000000       0.05555556 </v>
   <v>       0.50000000       0.33333333       0.50000000 </v>
   <v>       0.50000000       0.50000000       0.61111111 </v>
   <v>       0.33333333       0.50000000       0.38888889 </v>
   <v>       0.50000000       0.33333333       0.83333333 </v>
   <v>       0.50000000       0.50000000       0.94444444 </v>
   <v>       0.33333333       0.50000000       0.72222222 </v>
   <v>       0.50000000       0.66666667       0.16666667 </v>
   <v>       0.50000000       0.83333333       0.27777778 </v>
   <v>       0.33333333       0.83333333       0.05555556 </v>
   <v>       0.50000000       0.66666667       0.50000000 </v>
   <v>       0.50000000       0.83333333       0.61111111 </v>
   <v>       0.33333333       0.83333333       0.38888889 </v>
   <v>       0.50000000       0.66666667       0.83333333 </v>
   <v>       0.50000000       0.83333333       0.94444444 </v>
   <v>       0.33333333       0.83333333       0.72222222 </v>
   <v>       0.83333333       0.00000000       0.16666667 </v>
   <v>       0.83333333       0.16666667       0.27777778 </v>
   <v>       0.66666667       0.16666667       0.05555556 </v>
   <v>       0.83333333       0.00000000       0.50000000 </v>
   <v>       0.83333333       0.16666667       0.61111111 </v>
   <v>       0.66666667       0.16666667       0.38888889 </v>
   <v>       0.83333333       0.00000000       0.83333333 </v>
   <v>       0.83333333       0.16666667       0.94444444 </v>
   <v>       0.66666667       0.16666667       0.72222222 </v>
   <v>       0.83333333       0.33333333       0.16666667 </v>
   <v>       0.83333333       0.50000000       0.27777778 </v>
   <v>       0.66666667       0.50000000       0.05555556 </v>
   <v>       0.83333333       0.33333333       0.50000000 </v>
   <v>       0.83333333       0.50000000       0.61111111 </v>
   <v>       0.66666667       0.50000000       0.38888889 </v>
   <v>       0.83333333       0.33333333       0.83333333 </v>
   <v>       0.83333333       0.50000000       0.94444444 </v>
   <v>       0.66666667       0.50000000       0.72222222 </v>
   <v>       0.83333333       0.66666667       0.16666667 </v>
   <v>       0.83333333       0.83333333       0.27777778 </v>
   <v>       0.66666667       0.83333333       0.05555556 </v>
   <v>       0.83333333       0.66666667       0.50000000 </v>
   <v>       0.83333333       0.83333333       0.61111111 </v>
   <v>       0.66666667       0.83333333       0.38888889 </v>
   <v>       0.83333333       0.66666667       0.83333333 </v>
   <v>       0.83333333       0.83333333       0.94444444 </v>
   <v>       0.66666667       0.83333333       0.72222222 </v>
  </varray>
 </structure>
</modeling>
