 243 243   0   0
  0.1311381E+02  0.1499190E-08  0.1499190E-08  0.1637160E-08  0.5000000E-15
  1.000000000000000E-004
  CAR 
 (Si O2)81  (P1) ~ Ciellie_MCM41 (MD     
     12.81323279    -20.33099900  301      1.11608099      1.00000000
    -20.331  0.0000E+00  0.0000E+00
    -20.221  0.0000E+00  0.0000E+00
    -20.110  0.0000E+00  0.0000E+00
    -20.000  0.0000E+00  0.0000E+00
    -19.889  0.0000E+00  0.0000E+00
    -19.779  0.0000E+00  0.0000E+00
    -19.668  0.0000E+00  0.0000E+00
    -19.558  0.0000E+00  0.0000E+00
    -19.447  0.0000E+00  0.0000E+00
    -19.337  0.0000E+00  0.0000E+00
    -19.226  0.0000E+00  0.0000E+00
    -19.116  0.1005E-16  0.1110E-17
    -19.005  0.6035E-07  0.6668E-08
    -18.895  0.2642E-01  0.2919E-02
    -18.784  0.6397E+01  0.7097E+00
    -18.674  0.3171E+02  0.4213E+01
    -18.563  0.5354E+02  0.1013E+02
    -18.453  0.7971E+02  0.1893E+02
    -18.342  0.1562E+03  0.3619E+02
    -18.232  0.1603E+03  0.5390E+02
    -18.121  0.3072E+02  0.5729E+02
    -18.011  0.4196E+02  0.6193E+02
    -17.900  0.1154E+03  0.7468E+02
    -17.790  0.1799E+03  0.9456E+02
    -17.679  0.6469E+02  0.1017E+03
    -17.569  0.3157E+02  0.1052E+03
    -17.458  0.2544E+02  0.1080E+03
    -17.348  0.6543E+02  0.1152E+03
    -17.238  0.1989E+03  0.1372E+03
    -17.127  0.9244E+02  0.1474E+03
    -17.017  0.5123E+02  0.1531E+03
    -16.906  0.3594E+02  0.1570E+03
    -16.796  0.2515E+02  0.1598E+03
    -16.685  0.2043E+03  0.1824E+03
    -16.575  0.1231E+04  0.3184E+03
    -16.464  0.5102E+02  0.3240E+03
    -16.354  0.1443E-02  0.3240E+03
    -16.243  0.8610E-11  0.3240E+03
    -16.133  0.0000E+00  0.3240E+03
    -16.022  0.0000E+00  0.3240E+03
    -15.912  0.0000E+00  0.3240E+03
    -15.801  0.0000E+00  0.3240E+03
    -15.691  0.0000E+00  0.3240E+03
    -15.580  0.0000E+00  0.3240E+03
    -15.470  0.0000E+00  0.3240E+03
    -15.359  0.0000E+00  0.3240E+03
    -15.249  0.0000E+00  0.3240E+03
    -15.138  0.0000E+00  0.3240E+03
    -15.028  0.0000E+00  0.3240E+03
    -14.917  0.0000E+00  0.3240E+03
    -14.807  0.0000E+00  0.3240E+03
    -14.696  0.0000E+00  0.3240E+03
    -14.586  0.0000E+00  0.3240E+03
    -14.476  0.0000E+00  0.3240E+03
    -14.365  0.0000E+00  0.3240E+03
    -14.255  0.0000E+00  0.3240E+03
    -14.144  0.0000E+00  0.3240E+03
    -14.034  0.0000E+00  0.3240E+03
    -13.923  0.0000E+00  0.3240E+03
    -13.813  0.0000E+00  0.3240E+03
    -13.702  0.0000E+00  0.3240E+03
    -13.592  0.0000E+00  0.3240E+03
    -13.481  0.0000E+00  0.3240E+03
    -13.371  0.0000E+00  0.3240E+03
    -13.260  0.0000E+00  0.3240E+03
    -13.150  0.0000E+00  0.3240E+03
    -13.039  0.0000E+00  0.3240E+03
    -12.929  0.0000E+00  0.3240E+03
    -12.818  0.0000E+00  0.3240E+03
    -12.708  0.0000E+00  0.3240E+03
    -12.597  0.0000E+00  0.3240E+03
    -12.487  0.0000E+00  0.3240E+03
    -12.376  0.0000E+00  0.3240E+03
    -12.266  0.0000E+00  0.3240E+03
    -12.155  0.0000E+00  0.3240E+03
    -12.045  0.0000E+00  0.3240E+03
    -11.934  0.0000E+00  0.3240E+03
    -11.824  0.0000E+00  0.3240E+03
    -11.713  0.0000E+00  0.3240E+03
    -11.603  0.0000E+00  0.3240E+03
    -11.493  0.0000E+00  0.3240E+03
    -11.382  0.0000E+00  0.3240E+03
    -11.272  0.0000E+00  0.3240E+03
    -11.161  0.0000E+00  0.3240E+03
    -11.051  0.0000E+00  0.3240E+03
    -10.940  0.0000E+00  0.3240E+03
    -10.830  0.0000E+00  0.3240E+03
    -10.719  0.0000E+00  0.3240E+03
    -10.609  0.0000E+00  0.3240E+03
    -10.498  0.0000E+00  0.3240E+03
    -10.388  0.0000E+00  0.3240E+03
    -10.277  0.0000E+00  0.3240E+03
    -10.167  0.0000E+00  0.3240E+03
    -10.056  0.0000E+00  0.3240E+03
     -9.946  0.0000E+00  0.3240E+03
     -9.835  0.0000E+00  0.3240E+03
     -9.725  0.0000E+00  0.3240E+03
     -9.614  0.0000E+00  0.3240E+03
     -9.504  0.0000E+00  0.3240E+03
     -9.393  0.0000E+00  0.3240E+03
     -9.283  0.1490E-12  0.3240E+03
     -9.172  0.9688E-05  0.3240E+03
     -9.062  0.1184E+00  0.3240E+03
     -8.951  0.3200E+01  0.3244E+03
     -8.841  0.7777E+01  0.3252E+03
     -8.731  0.1115E+02  0.3265E+03
     -8.620  0.1437E+02  0.3280E+03
     -8.510  0.1779E+02  0.3300E+03
     -8.399  0.2170E+02  0.3324E+03
     -8.289  0.2655E+02  0.3353E+03
     -8.178  0.3349E+02  0.3390E+03
     -8.068  0.5475E+02  0.3451E+03
     -7.957  0.1536E+03  0.3621E+03
     -7.847  0.8545E+02  0.3715E+03
     -7.736  0.3515E+02  0.3754E+03
     -7.626  0.1738E+02  0.3773E+03
     -7.515  0.1176E+02  0.3786E+03
     -7.405  0.1065E+02  0.3798E+03
     -7.294  0.1259E+02  0.3812E+03
     -7.184  0.1664E+02  0.3830E+03
     -7.073  0.2302E+02  0.3856E+03
     -6.963  0.3565E+02  0.3895E+03
     -6.852  0.7530E+02  0.3978E+03
     -6.742  0.1124E+03  0.4102E+03
     -6.631  0.7250E+02  0.4182E+03
     -6.521  0.4198E+02  0.4229E+03
     -6.410  0.2823E+02  0.4260E+03
     -6.300  0.1950E+02  0.4281E+03
     -6.189  0.1456E+02  0.4298E+03
     -6.079  0.3372E+02  0.4335E+03
     -5.968  0.5673E+02  0.4397E+03
     -5.858  0.6855E+02  0.4473E+03
     -5.748  0.5929E+02  0.4539E+03
     -5.637  0.5337E+02  0.4598E+03
     -5.527  0.4958E+02  0.4652E+03
     -5.416  0.4625E+02  0.4704E+03
     -5.306  0.4227E+02  0.4750E+03
     -5.195  0.3649E+02  0.4791E+03
     -5.085  0.5756E+02  0.4854E+03
     -4.974  0.1890E+03  0.5063E+03
     -4.864  0.2272E+03  0.5314E+03
     -4.753  0.1612E+03  0.5492E+03
     -4.643  0.1368E+03  0.5643E+03
     -4.532  0.1368E+03  0.5795E+03
     -4.422  0.1225E+03  0.5930E+03
     -4.311  0.9621E+02  0.6036E+03
     -4.201  0.1546E+03  0.6207E+03
     -4.090  0.1127E+03  0.6331E+03
     -3.980  0.8517E+02  0.6425E+03
     -3.869  0.4559E+02  0.6476E+03
     -3.759  0.3742E+01  0.6480E+03
     -3.648  0.2843E-02  0.6480E+03
     -3.538  0.8060E-09  0.6480E+03
     -3.427  0.0000E+00  0.6480E+03
     -3.317  0.0000E+00  0.6480E+03
     -3.206  0.0000E+00  0.6480E+03
     -3.096  0.0000E+00  0.6480E+03
     -2.986  0.0000E+00  0.6480E+03
     -2.875  0.0000E+00  0.6480E+03
     -2.765  0.1383E-07  0.6480E+03
     -2.654  0.3425E-01  0.6480E+03
     -2.544  0.3366E+02  0.6517E+03
     -2.433  0.2798E+03  0.6826E+03
     -2.323  0.2485E+03  0.7101E+03
     -2.212  0.2184E+03  0.7342E+03
     -2.102  0.1665E+03  0.7526E+03
     -1.991  0.1297E+03  0.7670E+03
     -1.881  0.1939E+03  0.7884E+03
     -1.770  0.1931E+03  0.8097E+03
     -1.660  0.1553E+03  0.8269E+03
     -1.549  0.2173E+03  0.8509E+03
     -1.439  0.2969E+03  0.8837E+03
     -1.328  0.2795E+03  0.9146E+03
     -1.218  0.1185E+03  0.9277E+03
     -1.107  0.1209E+03  0.9410E+03
     -0.997  0.2354E+03  0.9670E+03
     -0.886  0.3211E+03  0.1002E+04
     -0.776  0.1660E+03  0.1021E+04
     -0.665  0.1411E+03  0.1036E+04
     -0.555  0.1838E+03  0.1057E+04
     -0.444  0.1737E+03  0.1076E+04
     -0.334  0.1179E+03  0.1089E+04
     -0.223  0.1549E+03  0.1106E+04
     -0.113  0.2050E+03  0.1129E+04
     -0.003  0.1798E+03  0.1149E+04
      0.108  0.1824E+03  0.1169E+04
      0.218  0.1633E+03  0.1187E+04
      0.329  0.1785E+03  0.1206E+04
      0.439  0.2095E+03  0.1230E+04
      0.550  0.1714E+03  0.1249E+04
      0.660  0.1462E+03  0.1265E+04
      0.771  0.2300E+03  0.1290E+04
      0.881  0.5316E+02  0.1296E+04
      0.992  0.2069E+00  0.1296E+04
      1.102  0.6406E-06  0.1296E+04
      1.213  0.1286E-15  0.1296E+04
      1.323  0.0000E+00  0.1296E+04
      1.434  0.0000E+00  0.1296E+04
      1.544  0.0000E+00  0.1296E+04
      1.655  0.0000E+00  0.1296E+04
      1.765  0.0000E+00  0.1296E+04
      1.876  0.0000E+00  0.1296E+04
      1.986  0.0000E+00  0.1296E+04
      2.097  0.0000E+00  0.1296E+04
      2.207  0.0000E+00  0.1296E+04
      2.318  0.0000E+00  0.1296E+04
      2.428  0.0000E+00  0.1296E+04
      2.539  0.0000E+00  0.1296E+04
      2.649  0.0000E+00  0.1296E+04
      2.759  0.0000E+00  0.1296E+04
      2.870  0.0000E+00  0.1296E+04
      2.980  0.0000E+00  0.1296E+04
      3.091  0.0000E+00  0.1296E+04
      3.201  0.0000E+00  0.1296E+04
      3.312  0.0000E+00  0.1296E+04
      3.422  0.0000E+00  0.1296E+04
      3.533  0.0000E+00  0.1296E+04
      3.643  0.0000E+00  0.1296E+04
      3.754  0.0000E+00  0.1296E+04
      3.864  0.0000E+00  0.1296E+04
      3.975  0.0000E+00  0.1296E+04
      4.085  0.0000E+00  0.1296E+04
      4.196  0.0000E+00  0.1296E+04
      4.306  0.0000E+00  0.1296E+04
      4.417  0.0000E+00  0.1296E+04
      4.527  0.0000E+00  0.1296E+04
      4.638  0.0000E+00  0.1296E+04
      4.748  0.0000E+00  0.1296E+04
      4.859  0.0000E+00  0.1296E+04
      4.969  0.0000E+00  0.1296E+04
      5.080  0.0000E+00  0.1296E+04
      5.190  0.0000E+00  0.1296E+04
      5.301  0.0000E+00  0.1296E+04
      5.411  0.0000E+00  0.1296E+04
      5.522  0.0000E+00  0.1296E+04
      5.632  0.0000E+00  0.1296E+04
      5.742  0.0000E+00  0.1296E+04
      5.853  0.0000E+00  0.1296E+04
      5.963  0.0000E+00  0.1296E+04
      6.074  0.0000E+00  0.1296E+04
      6.184  0.0000E+00  0.1296E+04
      6.295  0.0000E+00  0.1296E+04
      6.405  0.0000E+00  0.1296E+04
      6.516  0.3121E-11  0.1296E+04
      6.626  0.3847E-04  0.1296E+04
      6.737  0.1269E+00  0.1296E+04
      6.847  0.1786E+01  0.1296E+04
      6.958  0.3605E+01  0.1297E+04
      7.068  0.4896E+01  0.1297E+04
      7.179  0.6010E+01  0.1298E+04
      7.289  0.7113E+01  0.1299E+04
      7.400  0.8328E+01  0.1300E+04
      7.510  0.9330E+01  0.1301E+04
      7.621  0.1027E+02  0.1302E+04
      7.731  0.1173E+02  0.1303E+04
      7.842  0.1260E+02  0.1304E+04
      7.952  0.1396E+02  0.1306E+04
      8.063  0.1560E+02  0.1308E+04
      8.173  0.1641E+02  0.1309E+04
      8.284  0.1860E+02  0.1312E+04
      8.394  0.1932E+02  0.1314E+04
      8.504  0.2187E+02  0.1316E+04
      8.615  0.2408E+02  0.1319E+04
      8.725  0.2619E+02  0.1322E+04
      8.836  0.3160E+02  0.1325E+04
      8.946  0.3323E+02  0.1329E+04
      9.057  0.3338E+02  0.1332E+04
      9.167  0.3302E+02  0.1336E+04
      9.278  0.3160E+02  0.1340E+04
      9.388  0.3087E+02  0.1343E+04
      9.499  0.3160E+02  0.1347E+04
      9.609  0.3529E+02  0.1350E+04
      9.720  0.4490E+02  0.1355E+04
      9.830  0.7558E+02  0.1364E+04
      9.941  0.1223E+03  0.1377E+04
     10.051  0.1650E+03  0.1395E+04
     10.162  0.1385E+03  0.1411E+04
     10.272  0.1213E+03  0.1424E+04
     10.383  0.1310E+03  0.1439E+04
     10.493  0.1724E+03  0.1458E+04
     10.604  0.2512E+03  0.1485E+04
     10.714  0.2077E+03  0.1508E+04
     10.825  0.1578E+03  0.1526E+04
     10.935  0.1098E+03  0.1538E+04
     11.046  0.1070E+03  0.1550E+04
     11.156  0.1006E+03  0.1561E+04
     11.267  0.5642E+02  0.1567E+04
     11.377  0.8111E+01  0.1568E+04
     11.487  0.2266E-01  0.1568E+04
     11.598  0.5539E-07  0.1568E+04
     11.708  0.0000E+00  0.1568E+04
     11.819  0.0000E+00  0.1568E+04
     11.929  0.0000E+00  0.1568E+04
     12.040  0.0000E+00  0.1568E+04
     12.150  0.0000E+00  0.1568E+04
     12.261  0.0000E+00  0.1568E+04
     12.371  0.0000E+00  0.1568E+04
     12.482  0.0000E+00  0.1568E+04
     12.592  0.0000E+00  0.1568E+04
     12.703  0.0000E+00  0.1568E+04
     12.813  0.0000E+00  0.1568E+04
