  243  243    1    1
  0.1311381E+02  0.1499190E-08  0.1499190E-08  0.1637160E-08  0.5000000E-15
  1.000000000000000E-004
  CAR 
 (Si O2)81  (P1) ~ Ciellie_MCM41 (MD     
   1296     84    784
 
  0.0000000E+00  0.0000000E+00  0.0000000E+00  0.1000000E-02
    1      -18.824443
    2      -18.615617
    3      -18.615615
    4      -18.536831
    5      -18.536824
    6      -18.536774
    7      -18.536655
    8      -18.536604
    9      -18.536597
   10      -18.407097
   11      -18.407096
   12      -18.407052
   13      -18.407050
   14      -18.407017
   15      -18.407016
   16      -18.406927
   17      -18.406925
   18      -18.406891
   19      -18.406890
   20      -18.406844
   21      -18.406843
   22      -18.279493
   23      -18.279491
   24      -18.279489
   25      -18.279487
   26      -18.116352
   27      -18.116350
   28      -18.116318
   29      -18.116316
   30      -18.045036
   31      -18.045035
   32      -17.949329
   33      -17.949328
   34      -17.949277
   35      -17.949277
   36      -17.949205
   37      -17.949204
   38      -17.949194
   39      -17.949193
   40      -17.949124
   41      -17.949124
   42      -17.949070
   43      -17.949070
   44      -17.799751
   45      -17.799751
   46      -17.799749
   47      -17.799749
   48      -17.672611
   49      -17.672607
   50      -17.672594
   51      -17.672336
   52      -17.672333
   53      -17.672322
   54      -17.457543
   55      -17.457542
   56      -17.457540
   57      -17.457539
   58      -17.313551
   59      -17.313546
   60      -17.288650
   61      -17.288605
   62      -17.275992
   63      -17.275881
   64      -17.275856
   65      -17.275765
   66      -17.275746
   67      -17.275637
   68      -17.136336
   69      -17.136335
   70      -17.136335
   71      -17.136334
   72      -17.136278
   73      -17.136276
   74      -17.136273
   75      -17.136271
   76      -17.136216
   77      -17.136216
   78      -17.136215
   79      -17.136214
   80      -16.692162
   81      -16.692159
   82      -16.666315
   83      -16.666312
   84      -16.666312
   85      -16.666310
   86      -16.658518
   87      -16.654975
   88      -16.654974
   89      -16.654960
   90      -16.654959
   91      -16.653513
   92      -16.653512
   93      -16.653466
   94      -16.653464
   95      -16.653385
   96      -16.653382
   97      -16.653324
   98      -16.653321
   99      -16.653241
  100      -16.653239
  101      -16.653179
  102      -16.653177
  103      -16.651901
  104      -16.651897
  105      -16.651895
  106      -16.651834
  107      -16.651831
  108      -16.651827
  109      -16.647265
  110      -16.647261
  111      -16.646840
  112      -16.646838
  113      -16.645737
  114      -16.645734
  115      -16.645712
  116      -16.645709
  117      -16.645698
  118      -16.645695
  119      -16.645662
  120      -16.645660
  121      -16.645639
  122      -16.645635
  123      -16.645588
  124      -16.645583
  125      -16.644835
  126      -16.644830
  127      -16.644793
  128      -16.644699
  129      -16.644655
  130      -16.644644
  131      -16.639539
  132      -16.639537
  133      -16.639496
  134      -16.639493
  135      -16.638873
  136      -16.638873
  137      -16.638870
  138      -16.638869
  139      -16.635633
  140      -16.635520
  141      -16.635492
  142      -16.635403
  143      -16.635379
  144      -16.635257
  145      -16.627614
  146      -16.627614
  147      -16.626814
  148      -16.626814
  149      -16.626720
  150      -16.626720
  151      -16.626705
  152      -16.626703
  153      -16.626602
  154      -16.626600
  155      -16.626588
  156      -16.626587
  157      -16.626477
  158      -16.626477
  159      -16.621867
  160      -16.621864
  161      -16.620451
  162      -16.620398
  163       -8.885783
  164       -8.885780
  165       -8.192274
  166       -8.192274
  167       -8.192245
  168       -8.192243
  169       -8.192208
  170       -8.192205
  171       -8.192182
  172       -8.192179
  173       -8.192142
  174       -8.192142
  175       -8.192113
  176       -8.192112
  177       -8.077992
  178       -8.077991
  179       -7.956826
  180       -7.956824
  181       -7.956801
  182       -7.956752
  183       -7.956732
  184       -7.956721
  185       -7.826448
  186       -7.826419
  187       -7.673562
  188       -7.673561
  189       -7.673561
  190       -7.673559
  191       -7.181721
  192       -7.181720
  193       -7.181708
  194       -7.181707
  195       -7.181701
  196       -7.181697
  197       -6.765243
  198       -6.765243
  199       -6.765241
  200       -6.765240
  201       -6.656572
  202       -6.656572
  203       -6.656567
  204       -6.656565
  205       -6.656526
  206       -6.656526
  207       -6.656484
  208       -6.656483
  209       -6.656443
  210       -6.656441
  211       -6.656441
  212       -6.656441
  213       -6.330853
  214       -6.330853
  215       -6.159309
  216       -6.159306
  217       -6.159275
  218       -6.159271
  219       -6.156281
  220       -6.156278
  221       -6.156278
  222       -6.156275
  223       -5.718681
  224       -5.718680
  225       -5.718672
  226       -5.718671
  227       -5.718630
  228       -5.718629
  229       -5.718629
  230       -5.718627
  231       -5.718596
  232       -5.718595
  233       -5.718589
  234       -5.718588
  235       -5.149682
  236       -5.149680
  237       -5.145493
  238       -5.145491
  239       -5.102145
  240       -5.102144
  241       -5.055120
  242       -5.053417
  243       -5.053417
  244       -5.053413
  245       -5.053397
  246       -5.053396
  247       -5.053394
  248       -5.035677
  249       -5.035649
  250       -5.035607
  251       -5.035580
  252       -5.035569
  253       -5.035500
  254       -4.937724
  255       -4.937723
  256       -4.937693
  257       -4.937692
  258       -4.937689
  259       -4.937688
  260       -4.937645
  261       -4.937644
  262       -4.937643
  263       -4.937641
  264       -4.937604
  265       -4.937603
  266       -4.869828
  267       -4.869803
  268       -4.869793
  269       -4.869758
  270       -4.869755
  271       -4.869741
  272       -4.842335
  273       -4.842333
  274       -4.842310
  275       -4.842308
  276       -4.822927
  277       -4.822927
  278       -4.822927
  279       -4.822926
  280       -4.725684
  281       -4.633078
  282       -4.633072
  283       -4.509571
  284       -4.509571
  285       -4.509562
  286       -4.509562
  287       -4.509527
  288       -4.509526
  289       -4.509524
  290       -4.509524
  291       -4.509486
  292       -4.509485
  293       -4.509473
  294       -4.509473
  295       -4.443740
  296       -4.443738
  297       -4.443736
  298       -4.443733
  299       -4.269727
  300       -4.269726
  301       -4.269726
  302       -4.269725
  303       -4.253438
  304       -4.253437
  305       -4.253403
  306       -4.253403
  307       -4.253397
  308       -4.253395
  309       -4.253392
  310       -4.253391
  311       -4.253387
  312       -4.253385
  313       -4.253347
  314       -4.253346
  315       -4.106088
  316       -4.106068
  317       -4.106058
  318       -4.106045
  319       -4.106036
  320       -4.106026
  321       -4.003772
  322       -4.003770
  323       -3.855232
  324       -3.855230
  325       -2.538069
  326       -2.538067
  327       -2.538066
  328       -2.538064
  329       -2.481729
  330       -2.481728
  331       -2.481711
  332       -2.481711
  333       -2.481651
  334       -2.481651
  335       -2.481646
  336       -2.481646
  337       -2.481586
  338       -2.481586
  339       -2.481570
  340       -2.481569
  341       -2.456137
  342       -2.456120
  343       -2.456120
  344       -2.456043
  345       -2.456039
  346       -2.456027
  347       -2.322549
  348       -2.322548
  349       -2.322428
  350       -2.322428
  351       -2.283485
  352       -2.283485
  353       -2.283471
  354       -2.283471
  355       -2.283426
  356       -2.283426
  357       -2.283369
  358       -2.283368
  359       -2.283329
  360       -2.283328
  361       -2.283314
  362       -2.283314
  363       -2.223857
  364       -2.216319
  365       -2.216319
  366       -2.216317
  367       -2.216317
  368       -2.185526
  369       -2.185505
  370       -2.185492
  371       -2.185416
  372       -2.185389
  373       -2.185368
  374       -2.180933
  375       -2.180932
  376       -2.179859
  377       -2.179846
  378       -2.147998
  379       -2.147998
  380       -2.147996
  381       -2.147996
  382       -2.020181
  383       -2.020179
  384       -2.014383
  385       -2.014381
  386       -1.892964
  387       -1.892962
  388       -1.889359
  389       -1.889293
  390       -1.889268
  391       -1.889267
  392       -1.889248
  393       -1.889179
  394       -1.832818
  395       -1.832816
  396       -1.832787
  397       -1.832785
  398       -1.832764
  399       -1.832762
  400       -1.832729
  401       -1.832727
  402       -1.832684
  403       -1.832682
  404       -1.832625
  405       -1.832623
  406       -1.829801
  407       -1.680083
  408       -1.680054
  409       -1.679910
  410       -1.679884
  411       -1.679840
  412       -1.679784
  413       -1.648135
  414       -1.648135
  415       -1.648111
  416       -1.648110
  417       -1.648089
  418       -1.648088
  419       -1.648084
  420       -1.648083
  421       -1.648055
  422       -1.648054
  423       -1.648040
  424       -1.648039
  425       -1.555957
  426       -1.555956
  427       -1.497236
  428       -1.497236
  429       -1.497178
  430       -1.497177
  431       -1.497175
  432       -1.497174
  433       -1.497165
  434       -1.497165
  435       -1.497164
  436       -1.497164
  437       -1.497112
  438       -1.497112
  439       -1.484674
  440       -1.484673
  441       -1.406580
  442       -1.406579
  443       -1.373020
  444       -1.373017
  445       -1.373011
  446       -1.373009
  447       -1.371088
  448       -1.371051
  449       -1.370975
  450       -1.370969
  451       -1.370943
  452       -1.370890
  453       -1.334396
  454       -1.334395
  455       -1.334395
  456       -1.334395
  457       -1.310553
  458       -1.310551
  459       -1.310517
  460       -1.310517
  461       -1.275168
  462       -1.275167
  463       -1.275167
  464       -1.275166
  465       -1.223640
  466       -1.223626
  467       -1.223594
  468       -1.223577
  469       -1.223524
  470       -1.223514
  471       -1.148850
  472       -1.148850
  473       -1.120759
  474       -1.120759
  475       -1.044601
  476       -1.044596
  477       -1.041197
  478       -1.041195
  479       -0.982335
  480       -0.982327
  481       -0.982325
  482       -0.982324
  483       -0.982106
  484       -0.982101
  485       -0.981510
  486       -0.973794
  487       -0.973405
  488       -0.929860
  489       -0.929858
  490       -0.929834
  491       -0.929833
  492       -0.929780
  493       -0.929779
  494       -0.929746
  495       -0.929745
  496       -0.929723
  497       -0.929722
  498       -0.929649
  499       -0.929648
  500       -0.866980
  501       -0.866979
  502       -0.866954
  503       -0.866953
  504       -0.866920
  505       -0.866919
  506       -0.866885
  507       -0.866885
  508       -0.866867
  509       -0.866866
  510       -0.866844
  511       -0.866843
  512       -0.695510
  513       -0.695505
  514       -0.695308
  515       -0.695302
  516       -0.656497
  517       -0.656496
  518       -0.656437
  519       -0.656436
  520       -0.656423
  521       -0.656423
  522       -0.656347
  523       -0.656346
  524       -0.656346
  525       -0.656345
  526       -0.656290
  527       -0.656289
  528       -0.631118
  529       -0.631118
  530       -0.631115
  531       -0.631114
  532       -0.445155
  533       -0.445117
  534       -0.445047
  535       -0.445000
  536       -0.444992
  537       -0.444877
  538       -0.377976
  539       -0.377975
  540       -0.377973
  541       -0.377972
  542       -0.326663
  543       -0.326661
  544       -0.282544
  545       -0.282527
  546       -0.282336
  547       -0.282318
  548       -0.282309
  549       -0.282286
  550       -0.275799
  551       -0.275799
  552       -0.275790
  553       -0.275790
  554       -0.225907
  555       -0.225676
  556       -0.138904
  557       -0.138904
  558       -0.138890
  559       -0.138889
  560       -0.138883
  561       -0.138883
  562       -0.138861
  563       -0.138861
  564       -0.138791
  565       -0.138790
  566       -0.138770
  567       -0.138768
  568       -0.069772
  569       -0.069740
  570       -0.069720
  571       -0.069654
  572       -0.069649
  573       -0.069611
  574        0.078613
  575        0.078614
  576        0.078618
  577        0.078618
  578        0.127896
  579        0.127899
  580        0.127909
  581        0.127911
  582        0.128036
  583        0.128039
  584        0.128047
  585        0.128049
  586        0.128082
  587        0.128085
  588        0.128104
  589        0.128107
  590        0.143665
  591        0.143665
  592        0.143671
  593        0.143671
  594        0.249871
  595        0.249872
  596        0.249880
  597        0.249880
  598        0.249901
  599        0.249902
  600        0.249906
  601        0.249906
  602        0.249931
  603        0.249931
  604        0.249939
  605        0.249940
  606        0.311205
  607        0.311211
  608        0.311411
  609        0.311415
  610        0.318717
  611        0.318733
  612        0.415512
  613        0.415513
  614        0.415519
  615        0.415521
  616        0.436919
  617        0.436922
  618        0.460104
  619        0.460105
  620        0.460127
  621        0.460128
  622        0.460131
  623        0.460134
  624        0.612894
  625        0.662082
  626        0.662083
  627        0.662113
  628        0.662114
  629        0.662123
  630        0.662124
  631        0.662153
  632        0.662154
  633        0.662188
  634        0.662189
  635        0.662243
  636        0.662245
  637        0.728082
  638        0.728087
  639        0.728143
  640        0.728158
  641        0.728173
  642        0.728249
  643        0.730291
  644        0.730292
  645        0.752547
  646        0.752555
  647        0.796653
  648        0.796653
  649        6.740175
  650        7.687817
  651        7.687818
  652        8.062476
  653        8.062547
  654        8.062569
  655        8.062673
  656        8.062826
  657        8.062843
  658        8.747816
  659        8.747818
  660        8.747888
  661        8.747889
  662        8.747892
  663        8.747894
  664        8.748005
  665        8.748007
  666        8.748144
  667        8.748146
  668        8.748148
  669        8.748150
  670        9.465053
  671        9.465053
  672        9.551317
  673        9.551320
  674        9.552031
  675        9.552033
  676        9.552753
  677        9.552785
  678        9.873514
  679        9.873514
  680        9.873535
  681        9.873536
  682        9.906607
  683        9.906650
  684        9.906770
  685        9.906828
  686        9.906866
  687        9.906940
  688        9.940637
  689        9.940638
  690        9.940643
  691        9.940644
  692       10.006408
  693       10.006872
  694       10.131453
  695       10.131453
  696       10.131468
  697       10.131468
  698       10.131578
  699       10.131579
  700       10.131579
  701       10.131579
  702       10.131683
  703       10.131684
  704       10.131712
  705       10.131713
  706       10.202426
  707       10.202432
  708       10.302011
  709       10.302573
  710       10.343252
  711       10.343254
  712       10.343274
  713       10.343275
  714       10.343372
  715       10.343373
  716       10.343415
  717       10.343415
  718       10.343533
  719       10.343534
  720       10.343540
  721       10.343540
  722       10.389609
  723       10.389610
  724       10.489659
  725       10.489687
  726       10.489705
  727       10.489744
  728       10.489804
  729       10.489874
  730       10.507941
  731       10.507956
  732       10.542340
  733       10.542345
  734       10.542399
  735       10.542422
  736       10.542663
  737       10.542674
  738       10.542718
  739       10.542721
  740       10.542839
  741       10.542853
  742       10.542938
  743       10.542951
  744       10.570480
  745       10.570494
  746       10.570499
  747       10.570518
  748       10.570534
  749       10.570637
  750       10.623441
  751       10.623445
  752       10.623457
  753       10.623480
  754       10.772601
  755       10.772622
  756       10.772662
  757       10.772697
  758       10.772732
  759       10.772738
  760       10.772761
  761       10.772795
  762       10.772834
  763       10.772870
  764       10.773156
  765       10.774335
  766       10.825786
  767       10.825846
  768       10.826333
  769       10.827815
  770       10.890515
  771       10.890675
  772       10.890904
  773       10.891121
  774       10.891733
  775       10.895820
  776       11.000400
  777       11.003300
  778       11.016570
  779       11.024440
  780       11.064655
  781       11.066421
  782       11.069783
  783       11.077975
  784       11.121364
 
  0.1000000E+00  0.1005167E-17 -0.1409948E-24  0.6000000E-02
    1      -18.820764
    2      -18.613115
    3      -18.613113
    4      -18.585753
    5      -18.559199
    6      -18.559190
    7      -18.509483
    8      -18.509470
    9      -18.486948
   10      -18.437192
   11      -18.437189
   12      -18.420650
   13      -18.420649
   14      -18.420634
   15      -18.420631
   16      -18.391668
   17      -18.391668
   18      -18.391646
   19      -18.391642
   20      -18.379468
   21      -18.379465
   22      -18.281067
   23      -18.281064
   24      -18.281060
   25      -18.281056
   26      -18.168321
   27      -18.168292
   28      -18.065311
   29      -18.065281
   30      -18.044292
   31      -18.044292
   32      -17.967649
   33      -17.967648
   34      -17.957958
   35      -17.957957
   36      -17.957940
   37      -17.957937
   38      -17.938752
   39      -17.938751
   40      -17.938727
   41      -17.938724
   42      -17.929472
   43      -17.929471
   44      -17.804220
   45      -17.804220
   46      -17.804211
   47      -17.804210
   48      -17.733888
   49      -17.705555
   50      -17.705541
   51      -17.643568
   52      -17.643560
   53      -17.610769
   54      -17.450136
   55      -17.450134
   56      -17.450130
   57      -17.450129
   58      -17.313021
   59      -17.313014
   60      -17.293199
   61      -17.288397
   62      -17.277320
   63      -17.277278
   64      -17.277177
   65      -17.276127
   66      -17.276093
   67      -17.274964
   68      -17.195876
   69      -17.195874
   70      -17.169358
   71      -17.169355
   72      -17.169319
   73      -17.169317
   74      -17.108366
   75      -17.108364
   76      -17.108332
   77      -17.108329
   78      -17.074129
   79      -17.074127
   80      -16.700811
   81      -16.700809
   82      -16.665675
   83      -16.665672
   84      -16.665668
   85      -16.665665
   86      -16.658456
   87      -16.656316
   88      -16.656313
   89      -16.655263
   90      -16.655261
   91      -16.655226
   92      -16.655223
   93      -16.654860
   94      -16.654859
   95      -16.654839
   96      -16.654838
   97      -16.652729
   98      -16.652345
   99      -16.652336
  100      -16.652333
  101      -16.652330
  102      -16.652300
  103      -16.652297
  104      -16.651780
  105      -16.651601
  106      -16.651588
  107      -16.650359
  108      -16.650356
  109      -16.648070
  110      -16.648063
  111      -16.647474
  112      -16.647470
  113      -16.647278
  114      -16.646955
  115      -16.646955
  116      -16.646882
  117      -16.646878
  118      -16.645902
  119      -16.645837
  120      -16.645003
  121      -16.645002
  122      -16.644932
  123      -16.644928
  124      -16.644807
  125      -16.644804
  126      -16.643748
  127      -16.643744
  128      -16.643636
  129      -16.643576
  130      -16.642292
  131      -16.640386
  132      -16.640355
  133      -16.639376
  134      -16.639339
  135      -16.638371
  136      -16.638370
  137      -16.638364
  138      -16.638364
  139      -16.637217
  140      -16.636139
  141      -16.636103
  142      -16.634209
  143      -16.634171
  144      -16.633493
  145      -16.628525
  146      -16.628522
  147      -16.627798
  148      -16.627796
  149      -16.627773
  150      -16.627772
  151      -16.627524
  152      -16.627523
  153      -16.626133
  154      -16.626131
  155      -16.626117
  156      -16.626115
  157      -16.625058
  158      -16.625056
  159      -16.622778
  160      -16.622775
  161      -16.620785
  162      -16.620730
  163       -8.877219
  164       -8.877216
  165       -8.298075
  166       -8.298072
  167       -8.240385
  168       -8.240383
  169       -8.240376
  170       -8.240373
  171       -8.136112
  172       -8.136110
  173       -8.136099
  174       -8.136095
  175       -8.090250
  176       -8.090246
  177       -8.075881
  178       -8.075880
  179       -7.970615
  180       -7.966211
  181       -7.966202
  182       -7.951159
  183       -7.951151
  184       -7.940956
  185       -7.828328
  186       -7.818255
  187       -7.682698
  188       -7.682697
  189       -7.682692
  190       -7.682690
  191       -7.277103
  192       -7.221784
  193       -7.221769
  194       -7.128132
  195       -7.128114
  196       -7.092198
  197       -6.766543
  198       -6.766543
  199       -6.766537
  200       -6.766536
  201       -6.710331
  202       -6.710329
  203       -6.683335
  204       -6.683334
  205       -6.683331
  206       -6.683329
  207       -6.630430
  208       -6.630429
  209       -6.630427
  210       -6.630427
  211       -6.604101
  212       -6.604100
  213       -6.335310
  214       -6.335309
  215       -6.292164
  216       -6.292136
  217       -6.144544
  218       -6.144541
  219       -6.144540
  220       -6.144537
  221       -6.026941
  222       -6.026909
  223       -5.759087
  224       -5.759086
  225       -5.745943
  226       -5.745942
  227       -5.745901
  228       -5.745899
  229       -5.701882
  230       -5.701881
  231       -5.701843
  232       -5.701840
  233       -5.671887
  234       -5.671886
  235       -5.192311
  236       -5.192310
  237       -5.146123
  238       -5.146121
  239       -5.122810
  240       -5.122761
  241       -5.115417
  242       -5.077167
  243       -5.077155
  244       -5.055463
  245       -5.055462
  246       -5.053578
  247       -5.038889
  248       -5.032801
  249       -5.004848
  250       -5.004815
  251       -4.989084
  252       -4.983135
  253       -4.983072
  254       -4.959192
  255       -4.959190
  256       -4.945626
  257       -4.945625
  258       -4.945588
  259       -4.945586
  260       -4.925982
  261       -4.925981
  262       -4.925943
  263       -4.925941
  264       -4.919701
  265       -4.919699
  266       -4.870954
  267       -4.870170
  268       -4.870130
  269       -4.868793
  270       -4.868754
  271       -4.867700
  272       -4.846981
  273       -4.846961
  274       -4.840720
  275       -4.840700
  276       -4.824078
  277       -4.824078
  278       -4.824075
  279       -4.824074
  280       -4.739140
  281       -4.638293
  282       -4.615307
  283       -4.557896
  284       -4.557895
  285       -4.531509
  286       -4.531509
  287       -4.531501
  288       -4.531500
  289       -4.487400
  290       -4.487400
  291       -4.487392
  292       -4.487391
  293       -4.469210
  294       -4.469209
  295       -4.442673
  296       -4.442670
  297       -4.442667
  298       -4.442664
  299       -4.281405
  300       -4.281402
  301       -4.271331
  302       -4.271330
  303       -4.271329
  304       -4.271329
  305       -4.269040
  306       -4.269038
  307       -4.269027
  308       -4.269025
  309       -4.239153
  310       -4.239150
  311       -4.239142
  312       -4.239140
  313       -4.221457
  314       -4.221454
  315       -4.164403
  316       -4.132004
  317       -4.131975
  318       -4.076935
  319       -4.076903
  320       -4.054613
  321       -4.007326
  322       -4.007323
  323       -3.859695
  324       -3.859689
  325       -2.536455
  326       -2.536452
  327       -2.536452
  328       -2.536450
  329       -2.496303
  330       -2.496302
  331       -2.490247
  332       -2.490245
  333       -2.490243
  334       -2.490243
  335       -2.472618
  336       -2.472618
  337       -2.472612
  338       -2.472612
  339       -2.460435
  340       -2.460434
  341       -2.456150
  342       -2.455596
  343       -2.455587
  344       -2.452521
  345       -2.452515
  346       -2.449182
  347       -2.337422
  348       -2.337322
  349       -2.334960
  350       -2.334959
  351       -2.309772
  352       -2.309666
  353       -2.309107
  354       -2.309106
  355       -2.309074
  356       -2.309074
  357       -2.256177
  358       -2.256177
  359       -2.256158
  360       -2.256157
  361       -2.236478
  362       -2.236476
  363       -2.236411
  364       -2.236408
  365       -2.228007
  366       -2.228006
  367       -2.221571
  368       -2.206435
  369       -2.196401
  370       -2.196387
  371       -2.192845
  372       -2.188608
  373       -2.188607
  374       -2.181250
  375       -2.181209
  376       -2.177365
  377       -2.174246
  378       -2.125061
  379       -2.125058
  380       -2.124981
  381       -2.124979
  382       -2.017903
  383       -2.017886
  384       -2.015726
  385       -2.015724
  386       -1.940265
  387       -1.909502
  388       -1.909479
  389       -1.892552
  390       -1.892550
  391       -1.859815
  392       -1.859771
  393       -1.841510
  394       -1.841507
  395       -1.841387
  396       -1.841385
  397       -1.838828
  398       -1.838826
  399       -1.836656
  400       -1.834214
  401       -1.834211
  402       -1.834109
  403       -1.834107
  404       -1.827212
  405       -1.827210
  406       -1.814654
  407       -1.744895
  408       -1.715920
  409       -1.715725
  410       -1.677048
  411       -1.677046
  412       -1.664177
  413       -1.664175
  414       -1.664135
  415       -1.664134
  416       -1.646300
  417       -1.646117
  418       -1.633514
  419       -1.633513
  420       -1.633500
  421       -1.633499
  422       -1.620419
  423       -1.620418
  424       -1.603512
  425       -1.551087
  426       -1.551086
  427       -1.500448
  428       -1.500447
  429       -1.493514
  430       -1.493513
  431       -1.493494
  432       -1.493492
  433       -1.491766
  434       -1.491765
  435       -1.489590
  436       -1.489589
  437       -1.489557
  438       -1.489556
  439       -1.482248
  440       -1.482245
  441       -1.427247
  442       -1.427246
  443       -1.399145
  444       -1.388346
  445       -1.388285
  446       -1.385899
  447       -1.385897
  448       -1.385791
  449       -1.385788
  450       -1.362844
  451       -1.362758
  452       -1.347954
  453       -1.346066
  454       -1.346064
  455       -1.345984
  456       -1.345983
  457       -1.337856
  458       -1.337822
  459       -1.309900
  460       -1.309898
  461       -1.267683
  462       -1.249593
  463       -1.249591
  464       -1.249550
  465       -1.249547
  466       -1.243918
  467       -1.243848
  468       -1.201462
  469       -1.201408
  470       -1.181118
  471       -1.138050
  472       -1.138050
  473       -1.117360
  474       -1.117359
  475       -1.034921
  476       -1.034918
  477       -1.015896
  478       -1.015841
  479       -0.985238
  480       -0.984155
  481       -0.982834
  482       -0.981148
  483       -0.980953
  484       -0.977624
  485       -0.977018
  486       -0.976777
  487       -0.972759
  488       -0.958621
  489       -0.958620
  490       -0.944777
  491       -0.944775
  492       -0.944638
  493       -0.944637
  494       -0.928940
  495       -0.928939
  496       -0.928925
  497       -0.928924
  498       -0.923284
  499       -0.923284
  500       -0.882466
  501       -0.882464
  502       -0.879366
  503       -0.879364
  504       -0.879225
  505       -0.879223
  506       -0.851868
  507       -0.851867
  508       -0.851814
  509       -0.851813
  510       -0.829890
  511       -0.829889
  512       -0.740697
  513       -0.740496
  514       -0.713193
  515       -0.713191
  516       -0.677788
  517       -0.677786
  518       -0.677741
  519       -0.677740
  520       -0.649491
  521       -0.649340
  522       -0.635134
  523       -0.635133
  524       -0.635111
  525       -0.635110
  526       -0.623734
  527       -0.623732
  528       -0.623636
  529       -0.623634
  530       -0.603994
  531       -0.603993
  532       -0.464996
  533       -0.464892
  534       -0.453518
  535       -0.453412
  536       -0.453068
  537       -0.432754
  538       -0.387244
  539       -0.387244
  540       -0.387229
  541       -0.387228
  542       -0.321534
  543       -0.321531
  544       -0.293886
  545       -0.275058
  546       -0.274889
  547       -0.268667
  548       -0.262771
  549       -0.262771
  550       -0.262755
  551       -0.262755
  552       -0.262603
  553       -0.262392
  554       -0.231781
  555       -0.228909
  556       -0.172691
  557       -0.172689
  558       -0.161957
  559       -0.151956
  560       -0.151955
  561       -0.151840
  562       -0.151839
  563       -0.130218
  564       -0.130216
  565       -0.130131