 243 243   0   0
  0.1311381E+02  0.1499190E-08  0.1499190E-08  0.1637160E-08  0.5000000E-15
  1.000000000000000E-004
  CAR 
 (Si O2)81  (P1) ~ Ciellie_MCM41 (MD     
     12.80394530    -20.33055803  301      1.11022684      1.00000000
    -20.331  0.0000E+00  0.0000E+00
    -20.220  0.0000E+00  0.0000E+00
    -20.110  0.0000E+00  0.0000E+00
    -19.999  0.0000E+00  0.0000E+00
    -19.889  0.0000E+00  0.0000E+00
    -19.778  0.0000E+00  0.0000E+00
    -19.668  0.0000E+00  0.0000E+00
    -19.557  0.0000E+00  0.0000E+00
    -19.447  0.0000E+00  0.0000E+00
    -19.337  0.0000E+00  0.0000E+00
    -19.226  0.0000E+00  0.0000E+00
    -19.116  0.1172E-16  0.1295E-17
    -19.005  0.6119E-07  0.6758E-08
    -18.895  0.2649E-01  0.2925E-02
    -18.784  0.6397E+01  0.7095E+00
    -18.674  0.3170E+02  0.4210E+01
    -18.563  0.5354E+02  0.1012E+02
    -18.453  0.7967E+02  0.1892E+02
    -18.342  0.1560E+03  0.3616E+02
    -18.232  0.1605E+03  0.5389E+02
    -18.122  0.3078E+02  0.5729E+02
    -18.011  0.4197E+02  0.6193E+02
    -17.901  0.1152E+03  0.7465E+02
    -17.790  0.1800E+03  0.9453E+02
    -17.680  0.6475E+02  0.1017E+03
    -17.569  0.3162E+02  0.1052E+03
    -17.459  0.2544E+02  0.1080E+03
    -17.348  0.6508E+02  0.1152E+03
    -17.238  0.1987E+03  0.1371E+03
    -17.128  0.9288E+02  0.1474E+03
    -17.017  0.5141E+02  0.1531E+03
    -16.907  0.3601E+02  0.1570E+03
    -16.796  0.2518E+02  0.1598E+03
    -16.686  0.1993E+03  0.1818E+03
    -16.575  0.1234E+04  0.3181E+03
    -16.465  0.5306E+02  0.3240E+03
    -16.354  0.1584E-02  0.3240E+03
    -16.244  0.1009E-10  0.3240E+03
    -16.134  0.0000E+00  0.3240E+03
    -16.023  0.0000E+00  0.3240E+03
    -15.913  0.0000E+00  0.3240E+03
    -15.802  0.0000E+00  0.3240E+03
    -15.692  0.0000E+00  0.3240E+03
    -15.581  0.0000E+00  0.3240E+03
    -15.471  0.0000E+00  0.3240E+03
    -15.360  0.0000E+00  0.3240E+03
    -15.250  0.0000E+00  0.3240E+03
    -15.139  0.0000E+00  0.3240E+03
    -15.029  0.0000E+00  0.3240E+03
    -14.919  0.0000E+00  0.3240E+03
    -14.808  0.0000E+00  0.3240E+03
    -14.698  0.0000E+00  0.3240E+03
    -14.587  0.0000E+00  0.3240E+03
    -14.477  0.0000E+00  0.3240E+03
    -14.366  0.0000E+00  0.3240E+03
    -14.256  0.0000E+00  0.3240E+03
    -14.145  0.0000E+00  0.3240E+03
    -14.035  0.0000E+00  0.3240E+03
    -13.925  0.0000E+00  0.3240E+03
    -13.814  0.0000E+00  0.3240E+03
    -13.704  0.0000E+00  0.3240E+03
    -13.593  0.0000E+00  0.3240E+03
    -13.483  0.0000E+00  0.3240E+03
    -13.372  0.0000E+00  0.3240E+03
    -13.262  0.0000E+00  0.3240E+03
    -13.151  0.0000E+00  0.3240E+03
    -13.041  0.0000E+00  0.3240E+03
    -12.931  0.0000E+00  0.3240E+03
    -12.820  0.0000E+00  0.3240E+03
    -12.710  0.0000E+00  0.3240E+03
    -12.599  0.0000E+00  0.3240E+03
    -12.489  0.0000E+00  0.3240E+03
    -12.378  0.0000E+00  0.3240E+03
    -12.268  0.0000E+00  0.3240E+03
    -12.157  0.0000E+00  0.3240E+03
    -12.047  0.0000E+00  0.3240E+03
    -11.936  0.0000E+00  0.3240E+03
    -11.826  0.0000E+00  0.3240E+03
    -11.716  0.0000E+00  0.3240E+03
    -11.605  0.0000E+00  0.3240E+03
    -11.495  0.0000E+00  0.3240E+03
    -11.384  0.0000E+00  0.3240E+03
    -11.274  0.0000E+00  0.3240E+03
    -11.163  0.0000E+00  0.3240E+03
    -11.053  0.0000E+00  0.3240E+03
    -10.942  0.0000E+00  0.3240E+03
    -10.832  0.0000E+00  0.3240E+03
    -10.722  0.0000E+00  0.3240E+03
    -10.611  0.0000E+00  0.3240E+03
    -10.501  0.0000E+00  0.3240E+03
    -10.390  0.0000E+00  0.3240E+03
    -10.280  0.0000E+00  0.3240E+03
    -10.169  0.0000E+00  0.3240E+03
    -10.059  0.0000E+00  0.3240E+03
     -9.948  0.0000E+00  0.3240E+03
     -9.838  0.0000E+00  0.3240E+03
     -9.728  0.0000E+00  0.3240E+03
     -9.617  0.0000E+00  0.3240E+03
     -9.507  0.0000E+00  0.3240E+03
     -9.396  0.0000E+00  0.3240E+03
     -9.286  0.9662E-13  0.3240E+03
     -9.175  0.6918E-05  0.3240E+03
     -9.065  0.1021E+00  0.3240E+03
     -8.954  0.3068E+01  0.3244E+03
     -8.844  0.7669E+01  0.3252E+03
     -8.733  0.1111E+02  0.3264E+03
     -8.623  0.1443E+02  0.3280E+03
     -8.513  0.1760E+02  0.3300E+03
     -8.402  0.2115E+02  0.3323E+03
     -8.292  0.2695E+02  0.3353E+03
     -8.181  0.3357E+02  0.3390E+03
     -8.071  0.5220E+02  0.3447E+03
     -7.960  0.1526E+03  0.3616E+03
     -7.850  0.8881E+02  0.3714E+03
     -7.739  0.3573E+02  0.3754E+03
     -7.629  0.1651E+02  0.3772E+03
     -7.519  0.1309E+02  0.3786E+03
     -7.408  0.9786E+01  0.3797E+03
     -7.298  0.1319E+02  0.3812E+03
     -7.187  0.1540E+02  0.3829E+03
     -7.077  0.2377E+02  0.3855E+03
     -6.966  0.3651E+02  0.3895E+03
     -6.856  0.6974E+02  0.3972E+03
     -6.745  0.1151E+03  0.4099E+03
     -6.635  0.7340E+02  0.4180E+03
     -6.525  0.4297E+02  0.4228E+03
     -6.414  0.2778E+02  0.4259E+03
     -6.304  0.2048E+02  0.4281E+03
     -6.193  0.1390E+02  0.4297E+03
     -6.083  0.3310E+02  0.4333E+03
     -5.972  0.5621E+02  0.4395E+03
     -5.862  0.6822E+02  0.4471E+03
     -5.751  0.5993E+02  0.4537E+03
     -5.641  0.5363E+02  0.4596E+03
     -5.530  0.4938E+02  0.4651E+03
     -5.420  0.4627E+02  0.4702E+03
     -5.310  0.4255E+02  0.4749E+03
     -5.199  0.3674E+02  0.4789E+03
     -5.089  0.5516E+02  0.4850E+03
     -4.978  0.1833E+03  0.5053E+03
     -4.868  0.2299E+03  0.5307E+03
     -4.757  0.1627E+03  0.5486E+03
     -4.647  0.1373E+03  0.5638E+03
     -4.536  0.1365E+03  0.5789E+03
     -4.426  0.1244E+03  0.5926E+03
     -4.316  0.9451E+02  0.6030E+03
     -4.205  0.1544E+03  0.6201E+03
     -4.095  0.1144E+03  0.6327E+03
     -3.984  0.8604E+02  0.6422E+03
     -3.874  0.4785E+02  0.6475E+03
     -3.763  0.4407E+01  0.6480E+03
     -3.653  0.4358E-02  0.6480E+03
     -3.542  0.1791E-08  0.6480E+03
     -3.432  0.0000E+00  0.6480E+03
     -3.322  0.0000E+00  0.6480E+03
     -3.211  0.0000E+00  0.6480E+03
     -3.101  0.0000E+00  0.6480E+03
     -2.990  0.0000E+00  0.6480E+03
     -2.880  0.0000E+00  0.6480E+03
     -2.769  0.5986E-08  0.6480E+03
     -2.659  0.2163E-01  0.6480E+03
     -2.548  0.2830E+02  0.6511E+03
     -2.438  0.2710E+03  0.6811E+03
     -2.327  0.2534E+03  0.7091E+03
     -2.217  0.2188E+03  0.7332E+03
     -2.107  0.1702E+03  0.7520E+03
     -1.996  0.1286E+03  0.7662E+03
     -1.886  0.1894E+03  0.7871E+03
     -1.775  0.1990E+03  0.8091E+03
     -1.665  0.1521E+03  0.8259E+03
     -1.554  0.2151E+03  0.8497E+03
     -1.444  0.2916E+03  0.8819E+03
     -1.333  0.2882E+03  0.9137E+03
     -1.223  0.1215E+03  0.9271E+03
     -1.113  0.1187E+03  0.9402E+03
     -1.002  0.2260E+03  0.9652E+03
     -0.892  0.3264E+03  0.1001E+04
     -0.781  0.1705E+03  0.1020E+04
     -0.671  0.1404E+03  0.1036E+04
     -0.560  0.1814E+03  0.1056E+04
     -0.450  0.1775E+03  0.1075E+04
     -0.339  0.1185E+03  0.1088E+04
     -0.229  0.1511E+03  0.1105E+04
     -0.119  0.2060E+03  0.1128E+04
     -0.008  0.1781E+03  0.1147E+04
      0.102  0.1841E+03  0.1168E+04
      0.213  0.1634E+03  0.1186E+04
      0.323  0.1778E+03  0.1205E+04
      0.434  0.2071E+03  0.1228E+04
      0.544  0.1768E+03  0.1248E+04
      0.655  0.1430E+03  0.1264E+04
      0.765  0.2306E+03  0.1289E+04
      0.876  0.6221E+02  0.1296E+04
      0.986  0.3229E+00  0.1296E+04
      1.096  0.1558E-05  0.1296E+04
      1.207  0.8440E-15  0.1296E+04
      1.317  0.0000E+00  0.1296E+04
      1.428  0.0000E+00  0.1296E+04
      1.538  0.0000E+00  0.1296E+04
      1.649  0.0000E+00  0.1296E+04
      1.759  0.0000E+00  0.1296E+04
      1.870  0.0000E+00  0.1296E+04
      1.980  0.0000E+00  0.1296E+04
      2.090  0.0000E+00  0.1296E+04
      2.201  0.0000E+00  0.1296E+04
      2.311  0.0000E+00  0.1296E+04
      2.422  0.0000E+00  0.1296E+04
      2.532  0.0000E+00  0.1296E+04
      2.643  0.0000E+00  0.1296E+04
      2.753  0.0000E+00  0.1296E+04
      2.864  0.0000E+00  0.1296E+04
      2.974  0.0000E+00  0.1296E+04
      3.084  0.0000E+00  0.1296E+04
      3.195  0.0000E+00  0.1296E+04
      3.305  0.0000E+00  0.1296E+04
      3.416  0.0000E+00  0.1296E+04
      3.526  0.0000E+00  0.1296E+04
      3.637  0.0000E+00  0.1296E+04
      3.747  0.0000E+00  0.1296E+04
      3.858  0.0000E+00  0.1296E+04
      3.968  0.0000E+00  0.1296E+04
      4.079  0.0000E+00  0.1296E+04
      4.189  0.0000E+00  0.1296E+04
      4.299  0.0000E+00  0.1296E+04
      4.410  0.0000E+00  0.1296E+04
      4.520  0.0000E+00  0.1296E+04
      4.631  0.0000E+00  0.1296E+04
      4.741  0.0000E+00  0.1296E+04
      4.852  0.0000E+00  0.1296E+04
      4.962  0.0000E+00  0.1296E+04
      5.073  0.0000E+00  0.1296E+04
      5.183  0.0000E+00  0.1296E+04
      5.293  0.0000E+00  0.1296E+04
      5.404  0.0000E+00  0.1296E+04
      5.514  0.0000E+00  0.1296E+04
      5.625  0.0000E+00  0.1296E+04
      5.735  0.0000E+00  0.1296E+04
      5.846  0.0000E+00  0.1296E+04
      5.956  0.0000E+00  0.1296E+04
      6.067  0.0000E+00  0.1296E+04
      6.177  0.0000E+00  0.1296E+04
      6.287  0.0000E+00  0.1296E+04
      6.398  0.0000E+00  0.1296E+04
      6.508  0.1506E-11  0.1296E+04
      6.619  0.2044E-04  0.1296E+04
      6.729  0.9103E-01  0.1296E+04
      6.840  0.1619E+01  0.1296E+04
      6.950  0.3438E+01  0.1297E+04
      7.061  0.4975E+01  0.1297E+04
      7.171  0.5997E+01  0.1298E+04
      7.282  0.6698E+01  0.1299E+04
      7.392  0.8501E+01  0.1299E+04
      7.502  0.9112E+01  0.1300E+04
      7.613  0.1041E+02  0.1302E+04
      7.723  0.1139E+02  0.1303E+04
      7.834  0.1298E+02  0.1304E+04
      7.944  0.1369E+02  0.1306E+04
      8.055  0.1479E+02  0.1307E+04
      8.165  0.1721E+02  0.1309E+04
      8.276  0.1765E+02  0.1311E+04
      8.386  0.2012E+02  0.1314E+04
      8.496  0.2160E+02  0.1316E+04
      8.607  0.2308E+02  0.1318E+04
      8.717  0.2685E+02  0.1321E+04
      8.828  0.2999E+02  0.1325E+04
      8.938  0.3443E+02  0.1329E+04
      9.049  0.3322E+02  0.1332E+04
      9.159  0.3252E+02  0.1336E+04
      9.270  0.3228E+02  0.1339E+04
      9.380  0.3051E+02  0.1343E+04
      9.490  0.3155E+02  0.1346E+04
      9.601  0.3604E+02  0.1350E+04
      9.711  0.4139E+02  0.1355E+04
      9.822  0.7404E+02  0.1363E+04
      9.932  0.1167E+03  0.1376E+04
     10.043  0.1654E+03  0.1394E+04
     10.153  0.1412E+03  0.1410E+04
     10.264  0.1206E+03  0.1423E+04
     10.374  0.1303E+03  0.1437E+04
     10.485  0.1665E+03  0.1456E+04
     10.595  0.2476E+03  0.1483E+04
     10.705  0.2151E+03  0.1507E+04
     10.816  0.1609E+03  0.1525E+04
     10.926  0.1116E+03  0.1537E+04
     11.037  0.1064E+03  0.1549E+04
     11.147  0.1022E+03  0.1560E+04
     11.258  0.6142E+02  0.1567E+04
     11.368  0.1042E+02  0.1568E+04
     11.479  0.3696E-01  0.1568E+04
     11.589  0.1209E-06  0.1568E+04
     11.699  0.0000E+00  0.1568E+04
     11.810  0.0000E+00  0.1568E+04
     11.920  0.0000E+00  0.1568E+04
     12.031  0.0000E+00  0.1568E+04
     12.141  0.0000E+00  0.1568E+04
     12.252  0.0000E+00  0.1568E+04
     12.362  0.0000E+00  0.1568E+04
     12.473  0.0000E+00  0.1568E+04
     12.583  0.0000E+00  0.1568E+04
     12.693  0.0000E+00  0.1568E+04
     12.804  0.0000E+00  0.1568E+04
