  243  243    1    1
  0.1311381E+02  0.1499190E-08  0.1499190E-08  0.1637160E-08  0.5000000E-15
  1.000000000000000E-004
  CAR 
 (Si O2)81  (P1) ~ Ciellie_MCM41 (MD     
   1296     32    784
 
  0.0000000E+00  0.0000000E+00  0.0000000E+00  0.2915452E-02
    1      -18.824444
    2      -18.615619
    3      -18.615617
    4      -18.536833
    5      -18.536825
    6      -18.536775
    7      -18.536656
    8      -18.536605
    9      -18.536598
   10      -18.407098
   11      -18.407097
   12      -18.407054
   13      -18.407052
   14      -18.407019
   15      -18.407017
   16      -18.406928
   17      -18.406926
   18      -18.406893
   19      -18.406891
   20      -18.406845
   21      -18.406844
   22      -18.279494
   23      -18.279492
   24      -18.279491
   25      -18.279489
   26      -18.116354
   27      -18.116352
   28      -18.116320
   29      -18.116317
   30      -18.045037
   31      -18.045037
   32      -17.949330
   33      -17.949329
   34      -17.949278
   35      -17.949278
   36      -17.949207
   37      -17.949205
   38      -17.949196
   39      -17.949194
   40      -17.949126
   41      -17.949125
   42      -17.949072
   43      -17.949071
   44      -17.799753
   45      -17.799753
   46      -17.799750
   47      -17.799750
   48      -17.672612
   49      -17.672608
   50      -17.672595
   51      -17.672338
   52      -17.672334
   53      -17.672323
   54      -17.457544
   55      -17.457543
   56      -17.457541
   57      -17.457540
   58      -17.313552
   59      -17.313548
   60      -17.288652
   61      -17.288606
   62      -17.275994
   63      -17.275882
   64      -17.275858
   65      -17.275767
   66      -17.275747
   67      -17.275638
   68      -17.136337
   69      -17.136337
   70      -17.136336
   71      -17.136336
   72      -17.136279
   73      -17.136277
   74      -17.136275
   75      -17.136273
   76      -17.136218
   77      -17.136217
   78      -17.136216
   79      -17.136216
   80      -16.692164
   81      -16.692161
   82      -16.666317
   83      -16.666314
   84      -16.666314
   85      -16.666311
   86      -16.658519
   87      -16.654976
   88      -16.654976
   89      -16.654961
   90      -16.654961
   91      -16.653515
   92      -16.653513
   93      -16.653467
   94      -16.653466
   95      -16.653387
   96      -16.653384
   97      -16.653325
   98      -16.653323
   99      -16.653242
  100      -16.653241
  101      -16.653180
  102      -16.653178
  103      -16.651903
  104      -16.651898
  105      -16.651896
  106      -16.651836
  107      -16.651832
  108      -16.651829
  109      -16.647266
  110      -16.647262
  111      -16.646841
  112      -16.646839
  113      -16.645738
  114      -16.645736
  115      -16.645713
  116      -16.645711
  117      -16.645699
  118      -16.645697
  119      -16.645664
  120      -16.645661
  121      -16.645641
  122      -16.645637
  123      -16.645589
  124      -16.645585
  125      -16.644836
  126      -16.644831
  127      -16.644795
  128      -16.644701
  129      -16.644657
  130      -16.644645
  131      -16.639540
  132      -16.639538
  133      -16.639497
  134      -16.639494
  135      -16.638875
  136      -16.638875
  137      -16.638871
  138      -16.638871
  139      -16.635635
  140      -16.635522
  141      -16.635494
  142      -16.635405
  143      -16.635380
  144      -16.635259
  145      -16.627616
  146      -16.627615
  147      -16.626816
  148      -16.626815
  149      -16.626722
  150      -16.626721
  151      -16.626706
  152      -16.626704
  153      -16.626603
  154      -16.626601
  155      -16.626589
  156      -16.626589
  157      -16.626479
  158      -16.626479
  159      -16.621869
  160      -16.621866
  161      -16.620453
  162      -16.620399
  163       -8.885784
  164       -8.885781
  165       -8.192275
  166       -8.192275
  167       -8.192246
  168       -8.192244
  169       -8.192209
  170       -8.192206
  171       -8.192182
  172       -8.192180
  173       -8.192143
  174       -8.192142
  175       -8.192114
  176       -8.192113
  177       -8.077992
  178       -8.077992
  179       -7.956827
  180       -7.956825
  181       -7.956802
  182       -7.956752
  183       -7.956733
  184       -7.956722
  185       -7.826449
  186       -7.826420
  187       -7.673563
  188       -7.673562
  189       -7.673562
  190       -7.673560
  191       -7.181722
  192       -7.181721
  193       -7.181709
  194       -7.181708
  195       -7.181702
  196       -7.181698
  197       -6.765244
  198       -6.765244
  199       -6.765242
  200       -6.765242
  201       -6.656573
  202       -6.656573
  203       -6.656568
  204       -6.656566
  205       -6.656527
  206       -6.656527
  207       -6.656485
  208       -6.656484
  209       -6.656444
  210       -6.656442
  211       -6.656442
  212       -6.656442
  213       -6.330855
  214       -6.330854
  215       -6.159310
  216       -6.159307
  217       -6.159276
  218       -6.159272
  219       -6.156282
  220       -6.156279
  221       -6.156279
  222       -6.156276
  223       -5.718682
  224       -5.718681
  225       -5.718674
  226       -5.718673
  227       -5.718631
  228       -5.718630
  229       -5.718630
  230       -5.718629
  231       -5.718597
  232       -5.718596
  233       -5.718590
  234       -5.718589
  235       -5.149683
  236       -5.149681
  237       -5.145495
  238       -5.145493
  239       -5.102146
  240       -5.102145
  241       -5.055121
  242       -5.053418
  243       -5.053418
  244       -5.053414
  245       -5.053398
  246       -5.053397
  247       -5.053395
  248       -5.035678
  249       -5.035650
  250       -5.035608
  251       -5.035581
  252       -5.035570
  253       -5.035501
  254       -4.937725
  255       -4.937724
  256       -4.937694
  257       -4.937693
  258       -4.937690
  259       -4.937689
  260       -4.937646
  261       -4.937645
  262       -4.937644
  263       -4.937642
  264       -4.937605
  265       -4.937604
  266       -4.869829
  267       -4.869805
  268       -4.869794
  269       -4.869760
  270       -4.869757
  271       -4.869743
  272       -4.842336
  273       -4.842335
  274       -4.842312
  275       -4.842309
  276       -4.822928
  277       -4.822928
  278       -4.822928
  279       -4.822928
  280       -4.725686
  281       -4.633079
  282       -4.633072
  283       -4.509573
  284       -4.509573
  285       -4.509564
  286       -4.509563
  287       -4.509528
  288       -4.509528
  289       -4.509526
  290       -4.509525
  291       -4.509487
  292       -4.509487
  293       -4.509475
  294       -4.509475
  295       -4.443742
  296       -4.443739
  297       -4.443738
  298       -4.443735
  299       -4.269728
  300       -4.269727
  301       -4.269727
  302       -4.269726
  303       -4.253439
  304       -4.253439
  305       -4.253405
  306       -4.253404
  307       -4.253399
  308       -4.253396
  309       -4.253394
  310       -4.253392
  311       -4.253388
  312       -4.253387
  313       -4.253348
  314       -4.253348
  315       -4.106089
  316       -4.106070
  317       -4.106059
  318       -4.106046
  319       -4.106037
  320       -4.106027
  321       -4.003773
  322       -4.003770
  323       -3.855233
  324       -3.855231
  325       -2.538070
  326       -2.538068
  327       -2.538067
  328       -2.538065
  329       -2.481730
  330       -2.481729
  331       -2.481712
  332       -2.481712
  333       -2.481652
  334       -2.481652
  335       -2.481647
  336       -2.481647
  337       -2.481587
  338       -2.481587
  339       -2.481571
  340       -2.481570
  341       -2.456138
  342       -2.456121
  343       -2.456121
  344       -2.456045
  345       -2.456040
  346       -2.456028
  347       -2.322551
  348       -2.322550
  349       -2.322430
  350       -2.322429
  351       -2.283487
  352       -2.283486
  353       -2.283473
  354       -2.283472
  355       -2.283428
  356       -2.283427
  357       -2.283370
  358       -2.283370
  359       -2.283330
  360       -2.283330
  361       -2.283315
  362       -2.283315
  363       -2.223859
  364       -2.216321
  365       -2.216321
  366       -2.216319
  367       -2.216319
  368       -2.185528
  369       -2.185507
  370       -2.185494
  371       -2.185417
  372       -2.185390
  373       -2.185370
  374       -2.180934
  375       -2.180933
  376       -2.179860
  377       -2.179847
  378       -2.148000
  379       -2.147999
  380       -2.147997
  381       -2.147997
  382       -2.020183
  383       -2.020180
  384       -2.014384
  385       -2.014383
  386       -1.892965
  387       -1.892963
  388       -1.889360
  389       -1.889295
  390       -1.889269
  391       -1.889268
  392       -1.889249
  393       -1.889180
  394       -1.832820
  395       -1.832818
  396       -1.832788
  397       -1.832787
  398       -1.832765
  399       -1.832763
  400       -1.832731
  401       -1.832729
  402       -1.832686
  403       -1.832684
  404       -1.832626
  405       -1.832624
  406       -1.829802
  407       -1.680085
  408       -1.680055
  409       -1.679911
  410       -1.679886
  411       -1.679842
  412       -1.679785
  413       -1.648137
  414       -1.648136
  415       -1.648112
  416       -1.648112
  417       -1.648090
  418       -1.648089
  419       -1.648085
  420       -1.648084
  421       -1.648056
  422       -1.648055
  423       -1.648041
  424       -1.648041
  425       -1.555959
  426       -1.555957
  427       -1.497238
  428       -1.497238
  429       -1.497179
  430       -1.497178
  431       -1.497176
  432       -1.497176
  433       -1.497167
  434       -1.497167
  435       -1.497166
  436       -1.497166
  437       -1.497114
  438       -1.497113
  439       -1.484676
  440       -1.484675
  441       -1.406581
  442       -1.406579
  443       -1.373022
  444       -1.373019
  445       -1.373013
  446       -1.373010
  447       -1.371089
  448       -1.371053
  449       -1.370976
  450       -1.370970
  451       -1.370944
  452       -1.370891
  453       -1.334397
  454       -1.334397
  455       -1.334397
  456       -1.334396
  457       -1.310554
  458       -1.310553
  459       -1.310518
  460       -1.310518
  461       -1.275169
  462       -1.275169
  463       -1.275168
  464       -1.275168
  465       -1.223641
  466       -1.223628
  467       -1.223595
  468       -1.223578
  469       -1.223525
  470       -1.223515
  471       -1.148852
  472       -1.148852
  473       -1.120761
  474       -1.120760
  475       -1.044602
  476       -1.044597
  477       -1.041199
  478       -1.041197
  479       -0.982337
  480       -0.982329
  481       -0.982326
  482       -0.982326
  483       -0.982108
  484       -0.982102
  485       -0.981510
  486       -0.973796
  487       -0.973407
  488       -0.929862
  489       -0.929860
  490       -0.929836
  491       -0.929835
  492       -0.929782
  493       -0.929781
  494       -0.929748
  495       -0.929747
  496       -0.929725
  497       -0.929723
  498       -0.929651
  499       -0.929650
  500       -0.866982
  501       -0.866981
  502       -0.866955
  503       -0.866954
  504       -0.866921
  505       -0.866921
  506       -0.866887
  507       -0.866886
  508       -0.866868
  509       -0.866868
  510       -0.866845
  511       -0.866845
  512       -0.695512
  513       -0.695507
  514       -0.695310
  515       -0.695304
  516       -0.656498
  517       -0.656497
  518       -0.656438
  519       -0.656437
  520       -0.656425
  521       -0.656424
  522       -0.656348
  523       -0.656348
  524       -0.656348
  525       -0.656347
  526       -0.656292
  527       -0.656290
  528       -0.631120
  529       -0.631120
  530       -0.631116
  531       -0.631116
  532       -0.445157
  533       -0.445119
  534       -0.445048
  535       -0.445002
  536       -0.444994
  537       -0.444878
  538       -0.377977
  539       -0.377977
  540       -0.377974
  541       -0.377974
  542       -0.326665
  543       -0.326663
  544       -0.282546
  545       -0.282528
  546       -0.282338
  547       -0.282320
  548       -0.282311
  549       -0.282288
  550       -0.275801
  551       -0.275801
  552       -0.275792
  553       -0.275792
  554       -0.225909
  555       -0.225678
  556       -0.138906
  557       -0.138906
  558       -0.138891
  559       -0.138891
  560       -0.138885
  561       -0.138885
  562       -0.138863
  563       -0.138863
  564       -0.138793
  565       -0.138792
  566       -0.138772
  567       -0.138770
  568       -0.069774
  569       -0.069742
  570       -0.069722
  571       -0.069656
  572       -0.069651
  573       -0.069612
  574        0.078612
  575        0.078612
  576        0.078616
  577        0.078616
  578        0.127895
  579        0.127897
  580        0.127907
  581        0.127910
  582        0.128035
  583        0.128037
  584        0.128045
  585        0.128048
  586        0.128080
  587        0.128083
  588        0.128102
  589        0.128105
  590        0.143663
  591        0.143663
  592        0.143669
  593        0.143669
  594        0.249869
  595        0.249870
  596        0.249878
  597        0.249878
  598        0.249899
  599        0.249900
  600        0.249904
  601        0.249905
  602        0.249929
  603        0.249929
  604        0.249937
  605        0.249938
  606        0.311203
  607        0.311209
  608        0.311409
  609        0.311413
  610        0.318716
  611        0.318731
  612        0.415510
  613        0.415511
  614        0.415517
  615        0.415519
  616        0.436917
  617        0.436920
  618        0.460102
  619        0.460103
  620        0.460125
  621        0.460126
  622        0.460129
  623        0.460132
  624        0.612892
  625        0.662080
  626        0.662081
  627        0.662111
  628        0.662112
  629        0.662121
  630        0.662122
  631        0.662151
  632        0.662152
  633        0.662186
  634        0.662187
  635        0.662241
  636        0.662243
  637        0.728080
  638        0.728085
  639        0.728141
  640        0.728156
  641        0.728171
  642        0.728247
  643        0.730289
  644        0.730290
  645        0.752544
  646        0.752553
  647        0.796651
  648        0.796651
  649        6.740175
  650        7.687817
  651        7.687819
  652        8.062476
  653        8.062547
  654        8.062569
  655        8.062674
  656        8.062827
  657        8.062844
  658        8.747816
  659        8.747818
  660        8.747888
  661        8.747890
  662        8.747893
  663        8.747895
  664        8.748005
  665        8.748007
  666        8.748144
  667        8.748146
  668        8.748149
  669        8.748150
  670        9.465053
  671        9.465054
  672        9.551317
  673        9.551320
  674        9.552031
  675        9.552033
  676        9.552753
  677        9.552785
  678        9.873515
  679        9.873515
  680        9.873536
  681        9.873536
  682        9.906607
  683        9.906650
  684        9.906770
  685        9.906828
  686        9.906866
  687        9.906940
  688        9.940636
  689        9.940637
  690        9.940642
  691        9.940643
  692       10.006408
  693       10.006873
  694       10.131453
  695       10.131453
  696       10.131467
  697       10.131468
  698       10.131578
  699       10.131579
  700       10.131579
  701       10.131579
  702       10.131683
  703       10.131684
  704       10.131712
  705       10.131713
  706       10.202426
  707       10.202432
  708       10.302011
  709       10.302574
  710       10.343253
  711       10.343254
  712       10.343275
  713       10.343275
  714       10.343373
  715       10.343374
  716       10.343415
  717       10.343416
  718       10.343533
  719       10.343534
  720       10.343540
  721       10.343541
  722       10.389609
  723       10.389610
  724       10.489659
  725       10.489687
  726       10.489706
  727       10.489745
  728       10.489804
  729       10.489874
  730       10.507941
  731       10.507956
  732       10.542340
  733       10.542346
  734       10.542400
  735       10.542422
  736       10.542664
  737       10.542675
  738       10.542718
  739       10.542722
  740       10.542839
  741       10.542853
  742       10.542938
  743       10.542951
  744       10.570480
  745       10.570495
  746       10.570499
  747       10.570519
  748       10.570535
  749       10.570637
  750       10.623441
  751       10.623445
  752       10.623457
  753       10.623480
  754       10.772602
  755       10.772622
  756       10.772662
  757       10.772697
  758       10.772732
  759       10.772738
  760       10.772761
  761       10.772795
  762       10.772834
  763       10.772870
  764       10.773157
  765       10.774336
  766       10.825786
  767       10.825846
  768       10.826333
  769       10.827815
  770       10.890515
  771       10.890675
  772       10.890904
  773       10.891121
  774       10.891734
  775       10.895820
  776       11.000400
  777       11.003300
  778       11.016570
  779       11.024440
  780       11.064655
  781       11.066420
  782       11.069782
  783       11.077975
  784       11.121363
 
  0.1428571E+00 -0.1654077E-16  0.2610865E-23  0.1749271E-01
    1      -18.817478
    2      -18.610547
    3      -18.610544
    4      -18.606010
    5      -18.567411
    6      -18.567403
    7      -18.496394
    8      -18.496380
    9      -18.465878
   10      -18.450421
   11      -18.450418
   12      -18.425752
   13      -18.425752
   14      -18.425738
   15      -18.425735
   16      -18.384513
   17      -18.384512
   18      -18.384489
   19      -18.384486
   20      -18.368723
   21      -18.368720
   22      -18.283083
   23      -18.283080
   24      -18.283073
   25      -18.283070
   26      -18.190161
   27      -18.190132
   28      -18.043372
   29      -18.043364
   30      -18.043363
   31      -18.043341
   32      -17.974962
   33      -17.974961
   34      -17.961096
   35      -17.961095
   36      -17.961080
   37      -17.961077
   38      -17.933507
   39      -17.933505
   40      -17.933480
   41      -17.933477
   42      -17.920715
   43      -17.920713
   44      -17.809051
   45      -17.809050
   46      -17.809038
   47      -17.809037
   48      -17.759220
   49      -17.720989
   50      -17.720973
   51      -17.632796
   52      -17.632789
   53      -17.584646
   54      -17.443202
   55      -17.443200
   56      -17.443194
   57      -17.443193
   58      -17.312164
   59      -17.312156
   60      -17.297879
   61      -17.288211
   62      -17.278600
   63      -17.278569
   64      -17.277823
   65      -17.277094
   66      -17.277060
   67      -17.274422
   68      -17.219504
   69      -17.219502
   70      -17.184605
   71      -17.184603
   72      -17.184567
   73      -17.184564
   74      -17.097872
   75      -17.097870
   76      -17.097841
   77      -17.097838
   78      -17.046974
   79      -17.046972
   80      -16.708867
   81      -16.708865
   82      -16.665510
   83      -16.665507
   84      -16.665502
   85      -16.665499
   86      -16.658367
   87      -16.657290
   88      -16.657288
   89      -16.655965
   90      -16.655963
   91      -16.655937
   92      -16.655933
   93      -16.654963
   94      -16.654963
   95      -16.654955
   96      -16.654954
   97      -16.653011
   98      -16.652665
   99      -16.652657
  100      -16.652202
  101      -16.652200
  102      -16.652174
  103      -16.652170
  104      -16.651839
  105      -16.651826
  106      -16.651491
  107      -16.648997
  108      -16.648995
  109      -16.648150
  110      -16.648110
  111      -16.647983
  112      -16.647961
  113      -16.647956
  114      -16.647516
  115      -16.647515
  116      -16.647446
  117      -16.647442
  118      -16.646316
  119      -16.646254
  120      -16.644712
  121      -16.644711
  122      -16.644647
  123      -16.644643
  124      -16.643432
  125      -16.643376
  126      -16.643193
  127      -16.643190
  128      -16.642693
  129      -16.642689
  130      -16.641007
  131      -16.640712
  132      -16.640669
  133      -16.639172
  134      -16.639141
  135      -16.638053
  136      -16.638052
  137      -16.638046
  138      -16.638045
  139      -16.637862
  140      -16.636425
  141      -16.636390
  142      -16.633891
  143      -16.633856
  144      -16.632564
  145      -16.629031
  146      -16.629028
  147      -16.628094
  148      -16.628091
  149      -16.628084
  150      -16.628082
  151      -16.626956
  152      -16.626955
  153      -16.625856
  154      -16.625854
  155      -16.625843
  156      -16.625841
  157      -16.624128
  158      -16.624126
  159      -16.623352
  160      -16.623349
  161      -16.621240
  162      -16.621001
  163       -8.868266
  164       -8.868263
  165       -8.343405
  166       -8.343402
  167       -8.258199
  168       -8.258196
  169       -8.258191
  170       -8.258188
  171       -8.109923
  172       -8.109922
  173       -8.109910
  174       -8.109906
  175       -8.073611
  176       -8.073610
  177       -8.049041
  178       -8.049038
  179       -7.975776
  180       -7.971452
  181       -7.971443
  182       -7.949951
  183       -7.949944
  184       -7.933659
  185       -7.830412
  186       -7.809815
  187       -7.692214
  188       -7.692213
  189       -7.692206
  190       -7.692203
  191       -7.318472
  192       -7.235232
  193       -7.235218
  194       -7.101053
  195       -7.101034
  196       -7.056685
  197       -6.767887
  198       -6.767886
  199       -6.767878
  200       -6.767877
  201       -6.732937
  202       -6.732935
  203       -6.694434
  204       -6.694432
  205       -6.694428
  206       -6.694426
  207       -6.619911
  208       -6.619911
  209       -6.619909
  210       -6.619909
  211       -6.582284
  212       -6.582282
  213       -6.348263
  214       -6.348236
  215       -6.339752
  216       -6.339752
  217       -6.132988
  218       -6.132985
  219       -6.132982
  220       -6.132980
  221       -5.970401
  222       -5.970367
  223       -5.773991
  224       -5.773989
  225       -5.760794
  226       -5.760793
  227       -5.760753
  228       -5.760750
  229       -5.697343
  230       -5.697342
  231       -5.697305
  232       -5.697303
  233       -5.650101
  234       -5.650100
  235       -5.218918
  236       -5.218917
  237       -5.158339
  238       -5.158288
  239       -5.142033
  240       -5.142032
  241       -5.140155
  242       -5.090690
  243       -5.090678
  244       -5.052517
  245       -5.040159
  246       -5.031811
  247       -5.028550
  248       -5.028549
  249       -4.989703
  250       -4.989669
  251       -4.969117
  252       -4.969115
  253       -4.961352
  254       -4.960272
  255       -4.960211
  256       -4.947717
  257       -4.947716
  258       -4.947680
  259       -4.947678
  260       -4.919679
  261       -4.919679
  262       -4.919642
  263       -4.919640
  264       -4.912892
  265       -4.912890
  266       -4.871015
  267       -4.870029
  268       -4.869988
  269       -4.868487
  270       -4.868448
  271       -4.866175
  272       -4.849311
  273       -4.849292
  274       -4.840910
  275       -4.840892
  276       -4.825712
  277       -4.825711
  278       -4.825707
  279       -4.825706
  280       -4.749554
  281       -4.643670
  282       -4.600170
  283       -4.580416
  284       -4.580415
  285       -4.540371
  286       -4.540370
  287       -4.540363
  288       -4.540361
  289       -4.478201
  290       -4.478201
  291       -4.478193
  292       -4.478192
  293       -4.454753
  294       -4.454752
  295       -4.441904
  296       -4.441901
  297       -4.441898
  298       -4.441895
  299       -4.291341
  300       -4.291339
  301       -4.275234
  302       -4.275231
  303       -4.275221
  304       -4.275219
  305       -4.273358
  306       -4.273357
  307       -4.273357
  308       -4.273356
  309       -4.233512
  310       -4.233509
  311       -4.233502
  312       -4.233500
  313       -4.206729
  314       -4.206726
  315       -4.190594
  316       -4.142112
  317       -4.142085
  318       -4.063836
  319       -4.063803
  320       -4.034820
  321       -4.010967
  322       -4.010964
  323       -3.863831
  324       -3.863823
  325       -2.535328
  326       -2.535326
  327       -2.535325
  328       -2.535322
  329       -2.500288
  330       -2.500287
  331       -2.493459
  332       -2.493458
  333       -2.493457
  334       -2.493456
  335       -2.468656
  336       -2.468655
  337       -2.468650
  338       -2.468649
  339       -2.454378
  340       -2.454364
  341       -2.453390
  342       -2.450130
  343       -2.450123
  344       -2.449213
  345       -2.449212
  346       -2.443705
  347       -2.355105
  348       -2.355105
  349       -2.344291
  350       -2.344195
  351       -2.318826
  352       -2.318825
  353       -2.318790
  354       -2.318789
  355       -2.304335
  356       -2.304231
  357       -2.251020
  358       -2.251017
  359       -2.250947
  360       -2.250944
  361       -2.244765
  362       -2.244765
  363       -2.244748
  364       -2.244747
  365       -2.220612
  366       -2.218196
  367       -2.204196
  368       -2.203772
  369       -2.203771
  370       -2.202603
  371       -2.202597
  372       -2.195894
  373       -2.195893
  374       -2.182613
  375       -2.182570
  376       -2.174176
  377       -2.171865
  378       -2.108738
  379       -2.108736
  380       -2.108648
  381       -2.108645
  382       -2.016178
  383       -2.016177
  384       -2.014166
  385       -2.014141
  386       -1.961184
  387       -1.914893
  388       -1.914874
  389       -1.891591
  390       -1.891588
  391       -1.847892
  392       -1.847889
  393       -1.847768
  394       -1.847766
  395       -1.847082
  396       -1.847039
  397       -1.840948
  398       -1.840946
  399       -1.836466
  400       -1.836464
  401       -1.836369
  402       -1.836367
  403       -1.825027
  404       -1.825025
  405       -1.814125
  406       -1.799943
  407       -1.767676
  408       -1.729156
  409       -1.728969
  410       -1.687838
  411       -1.687836
  412       -1.671786
  413       -1.671784
  414       -1.671741
  415       -1.671740
  416       -1.633202
  417       -1.633028
  418       -1.626555
  419       -1.626554
  420       -1.626526
  421       -1.626524
  422       -1.609659
  423       -1.609659
  424       -1.569049
  425       -1.546821
  426       -1.546820
  427       -1.501179
  428       -1.501177
  429       -1.488806
  430       -1.488805
  431       -1.488781
  432       -1.488779
  433       -1.488074
  434       -1.488073
  435       -1.483195
  436       -1.483194
  437       -1.483149
  438       -1.483148
  439       -1.479307
  440       -1.479304
  441       -1.445548
  442       -1.445547
  443       -1.411160
  444       -1.399131
  445       -1.399129
  446       -1.399007
  447       -1.399004
  448       -1.397458
  449       -1.397408
  450       -1.362892
  451       -1.362808
  452       -1.361047
  453       -1.361006
  454       -1.352231
  455       -1.352229
  456       -1.352136
  457       -1.352134
  458       -1.339342
  459       -1.308532
  460       -1.308529
  461       -1.286507
  462       -1.251572
  463       -1.251505
  464       -1.230924
  465       -1.230923
  466       -1.230872
  467       -1.230869
  468       -1.192768
  469       -1.192720
  470       -1.163635
  471       -1.129725
  472       -1.129724
  473       -1.112826
  474       -1.112826
  475       -1.028619
  476       -1.028616
  477       -0.994123
  478       -0.990385
  479       -0.990315
  480       -0.987069
  481       -0.985776
  482       -0.979137
  483       -0.978957
  484       -0.974952
  485       -0.973241
  486       -0.973239
  487       -0.972980
  488       -0.972691
  489       -0.972446
  490       -0.952926
  491       -0.952924
  492       -0.952780
  493       -0.952778
  494       -0.933657
  495       -0.933656
  496       -0.933614
  497       -0.933612
  498       -0.925193
  499       -0.925193
  500       -0.886849
  501       -0.886847
  502       -0.885127
  503       -0.885125
  504       -0.884972
  505       -0.884970
  506       -0.842780
  507       -0.842779
  508       -0.842692
  509       -0.842691
  510       -0.808577
  511       -0.808576
  512       -0.758291
  513       -0.758079
  514       -0.738262
  515       -0.738261
  516       -0.683468
  517       -0.683466
  518       -0.683432
  519       -0.683430
  520       -0.640075
  521       -0.640074
  522       -0.640041
  523       -0.640041
  524       -0.628147
  525       -0.628007
  526       -0.607016
  527       -0.607015
  528       -0.606912
  529       -0.606911
  530       -0.583412
  531       -0.583411
  532       -0.480923
  533       -0.480842
  534       -0.463181
  535       -0.463095
  536       -0.454754
  537       -0.425912
  538       -0.395441
  539       -0.395441
  540       -0.395426
  541       -0.395425
  542       -0.316593
  543       -0.316590
  544       -0.297346
  545       -0.265834
  546       -0.265695
  547       -0.262201
  548       -0.252952
  549       -0.252951
  550       -0.252937
  551       -0.252936
  552       -0.250433
  553       -0.250242
  554       -0.238537
  555       -0.232832
  556       -0.198839
  557       -0.192409
  558       -0.192408
  559       -0.157945
  560       -0.157944
  561       -0.157826
  562       -0.157825
  563       -0.142517
  564       -0.142430
  565       -0.130752