Automatically generated mesh
      32
Reciprocal lattice
    0.00000000000000    0.00000000000000    0.00000000000000             1
    0.14285714285714   -0.00000000000000    0.00000000000000             6
    0.28571428571429   -0.00000000000000    0.00000000000000             6
    0.42857142857143   -0.00000000000000    0.00000000000000             6
    0.14285714285714    0.14285714285714    0.00000000000000             6
    0.28571428571429    0.14285714285714    0.00000000000000            12
    0.42857142857143    0.14285714285714    0.00000000000000             6
    0.28571428571429    0.28571428571429    0.00000000000000             6
    0.00000000000000    0.00000000000000    0.14285714285714             2
    0.14285714285714   -0.00000000000000    0.14285714285714            12
    0.28571428571429   -0.00000000000000    0.14285714285714            12
    0.42857142857143   -0.00000000000000    0.14285714285714            12
    0.14285714285714    0.14285714285714    0.14285714285714            12
    0.28571428571429    0.14285714285714    0.14285714285714            24
    0.42857142857143    0.14285714285714    0.14285714285714            12
    0.28571428571429    0.28571428571429    0.14285714285714            12
    0.00000000000000    0.00000000000000    0.28571428571429             2
    0.14285714285714   -0.00000000000000    0.28571428571429            12
    0.28571428571429   -0.00000000000000    0.28571428571429            12
    0.42857142857143   -0.00000000000000    0.28571428571429            12
    0.14285714285714    0.14285714285714    0.28571428571429            12
    0.28571428571429    0.14285714285714    0.28571428571429            24
    0.42857142857143    0.14285714285714    0.28571428571429            12
    0.28571428571429    0.28571428571429    0.28571428571429            12
    0.00000000000000    0.00000000000000    0.42857142857143             2
    0.14285714285714   -0.00000000000000    0.42857142857143            12
    0.28571428571429   -0.00000000000000    0.42857142857143            12
    0.42857142857143   -0.00000000000000    0.42857142857143            12
    0.14285714285714    0.14285714285714    0.42857142857143            12
    0.28571428571429    0.14285714285714    0.42857142857143            24
    0.42857142857143    0.14285714285714    0.42857142857143            12
    0.28571428571429    0.28571428571429    0.42857142857143            12
