       N       E                     dE             d eps       ncg     rms          rms(c)
DAV:   1     0.820821040127E+04    0.82082E+04   -0.59854E+05 50544   0.125E+03
DAV:   2    -0.147403278207E+04   -0.96822E+04   -0.94900E+04 58808   0.336E+02
DAV:   3    -0.217404693381E+04   -0.70001E+03   -0.69702E+03 58632   0.982E+01
DAV:   4    -0.218634911625E+04   -0.12302E+02   -0.12272E+02 59576   0.136E+01
DAV:   5    -0.218663994305E+04   -0.29083E+00   -0.29044E+00 58584   0.192E+00    0.140E+02
DAV:   6    -0.191718559785E+04    0.26945E+03   -0.11203E+03 55912   0.360E+01    0.652E+01
DAV:   7    -0.191560381300E+04    0.15818E+01   -0.32386E+01 63664   0.560E+00    0.233E+01
DAV:   8    -0.191529213973E+04    0.31167E+00   -0.19532E+00 58128   0.193E+00    0.877E+00
DAV:   9    -0.191552938685E+04   -0.23725E+00   -0.79099E-01 56184   0.122E+00    0.150E+00
DAV:  10    -0.191558458516E+04   -0.55198E-01   -0.64639E-02 56784   0.289E-01    0.378E-01
DAV:  11    -0.191558726644E+04   -0.26813E-02   -0.11132E-02 58120   0.135E-01    0.608E-02
DAV:  12    -0.191558751968E+04   -0.25323E-03   -0.33940E-04 58656   0.221E-02    0.587E-02
DAV:  13    -0.191558764650E+04   -0.12683E-03   -0.13522E-04 56856   0.135E-02    0.223E-02
DAV:  14    -0.191558765969E+04   -0.13193E-04   -0.19428E-05 39656   0.541E-03    0.500E-03
DAV:  15    -0.191558765917E+04    0.52495E-06   -0.24249E-06 36416   0.186E-03
   1 F= -.19155877E+04 E0= -.19155877E+04  d E =-.139099E-17
