 vasp.5.3.5 31Mar14 (build Oct 18 2016 11:10:54) complex                        
  
 executed on             LinuxIFC date 2017.10.09  13:39:13
 running on  240 total cores
 distrk:  each k-point on  120 cores,    2 groups
 distr:  one band on NCORES_PER_BAND=  15 cores,    8 groups


--------------------------------------------------------------------------------------------------------


 INCAR:
 POTCAR:    PAW_PBE O 08Apr2002                   
 POTCAR:    PAW_PBE Si 05Jan2001                  

 ----------------------------------------------------------------------------- 
|                                                                             |
|           W    W    AA    RRRRR   N    N  II  N    N   GGGG   !!!           |
|           W    W   A  A   R    R  NN   N  II  NN   N  G    G  !!!           |
|           W    W  A    A  R    R  N N  N  II  N N  N  G       !!!           |
|           W WW W  AAAAAA  RRRRR   N  N N  II  N  N N  G  GGG   !            |
|           WW  WW  A    A  R   R   N   NN  II  N   NN  G    G                |
|           W    W  A    A  R    R  N    N  II  N    N   GGGG   !!!           |
|                                                                             |
|      You have enabled k-point parallelism (KPAR>1).                         |
|      This developmental code was originally  written by Paul Kent at ORNL,  |
|      and carefully double checked in Vienna.                                |
|      GW as well as linear response parallelism added by Martijn Marsman     |
|      and Georg Kresse.                                                      |
|      Carefully verify results versus KPAR=1.                                |
|      Report problems to Paul Kent and Vienna.                               |
|                                                                             |
 ----------------------------------------------------------------------------- 

 POTCAR:    PAW_PBE O 08Apr2002                   
   VRHFIN =O: s2p4                                                              
   LEXCH  = PE                                                                  
   EATOM  =   432.3788 eV,   31.7789 Ry                                         
                                                                                
   TITEL  = PAW_PBE O 08Apr2002                                                 
   LULTRA =        F    use ultrasoft PP ?                                      
   IUNSCR =        1    unscreen: 0-lin 1-nonlin 2-no                           
   RPACOR =    1.200    partial core radius                                     
   POMASS =   16.000; ZVAL   =    6.000    mass and valenz                      
   RCORE  =    1.520    outmost cutoff radius                                   
   RWIGS  =    1.550; RWIGS  =    0.820    wigner-seitz radius (au A)           
   ENMAX  =  400.000; ENMIN  =  300.000 eV                                      
   ICORE  =        2    local potential                                         
   LCOR   =        T    correct aug charges                                     
   LPAW   =        T    paw PP                                                  
   EAUG   =  605.392                                                            
   DEXC   =    0.000                                                            
   RMAX   =    1.553    core radius for proj-oper                               
   RAUG   =    1.300    factor for augmentation sphere                          
   RDEP   =    1.550    radius for radial grids                                 
   RDEPT  =    1.329    core radius for aug-charge                              
                                                                                
   Atomic configuration                                                         
    4 entries                                                                   
     n  l   j            E        occ.                                          
     1  0  0.50      -514.6923   2.0000                                         
     2  0  0.50       -23.9615   2.0000                                         
     2  1  0.50        -9.0305   4.0000                                         
     3  2  1.50        -9.5241   0.0000                                         
   Description                                                                  
     l       E           TYP  RCUT    TYP  RCUT                                 
     0    -23.9615318     23  1.200                                             
     0     -9.5240782     23  1.200                                             
     1     -9.0304911     23  1.520                                             
     1      8.1634956     23  1.520                                             
     2     -9.5240782      7  1.500                                             
  local pseudopotential read in
  partial core-charges read in
  partial kinetic energy density read in
  kinetic energy density of atom read in
  atomic valenz-charges read in
  non local Contribution for L=           0  read in
    real space projection operators read in
  non local Contribution for L=           0  read in
    real space projection operators read in
  non local Contribution for L=           1  read in
    real space projection operators read in
  non local Contribution for L=           1  read in
    real space projection operators read in
    PAW grid and wavefunctions read in
 
   number of l-projection  operators is LMAX  =           4
   number of lm-projection operators is LMMAX =           8
 
 POTCAR:    PAW_PBE Si 05Jan2001                  
   VRHFIN =Si: s2p2                                                             
   LEXCH  = PE                                                                  
   EATOM  =   103.0669 eV,    7.5752 Ry                                         
                                                                                
   TITEL  = PAW_PBE Si 05Jan2001                                                
   LULTRA =        F    use ultrasoft PP ?                                      
   IUNSCR =        1    unscreen: 0-lin 1-nonlin 2-no                           
   RPACOR =    1.500    partial core radius                                     
   POMASS =   28.085; ZVAL   =    4.000    mass and valenz                      
   RCORE  =    1.900    outmost cutoff radius                                   
   RWIGS  =    2.480; RWIGS  =    1.312    wigner-seitz radius (au A)           
   ENMAX  =  245.345; ENMIN  =  184.009 eV                                      
   ICORE  =        2    local potential                                         
   LCOR   =        T    correct aug charges                                     
   LPAW   =        T    paw PP                                                  
   EAUG   =  322.069                                                            
   DEXC   =    0.000                                                            
   RMAX   =    1.950    core radius for proj-oper                               
   RAUG   =    1.300    factor for augmentation sphere                          
   RDEP   =    1.993    radius for radial grids                                 
   RDEPT  =    1.837    core radius for aug-charge                              
                                                                                
   Atomic configuration                                                         
    6 entries                                                                   
     n  l   j            E        occ.                                          
     1  0  0.50     -1785.8828   2.0000                                         
     2  0  0.50      -139.4969   2.0000                                         
     2  1  1.50       -95.5546   6.0000                                         
     3  0  0.50       -10.8127   2.0000                                         
     3  1  0.50        -4.0811   2.0000                                         
     3  2  1.50        -4.0817   0.0000                                         
   Description                                                                  
     l       E           TYP  RCUT    TYP  RCUT                                 
     0    -10.8127223     23  1.900                                             
     0     -7.6451159     23  1.900                                             
     1     -4.0811372     23  1.900                                             
     1      2.4879257     23  1.900                                             
     2     -4.0817478      7  1.900                                             
  local pseudopotential read in
  partial core-charges read in
  partial kinetic energy density read in
  atomic valenz-charges read in
  non local Contribution for L=           0  read in
    real space projection operators read in
  non local Contribution for L=           0  read in
    real space projection operators read in
  non local Contribution for L=           1  read in
    real space projection operators read in
  non local Contribution for L=           1  read in
    real space projection operators read in
    PAW grid and wavefunctions read in
 
   number of l-projection  operators is LMAX  =           4
   number of lm-projection operators is LMMAX =           8
 
 Optimization of the real space projectors (new method)

 maximal supplied QI-value         = 24.76
 optimisation between [QCUT,QGAM] = [ 10.15, 20.30] = [ 28.85,115.39] Ry 
 Optimized for a Real-space Cutoff    1.51 Angstroem

   l    n(q)    QCUT    max X(q) W(low)/X(q) W(high)/X(q)  e(spline) 
   0      9    10.150    20.381    0.17E-03    0.18E-03    0.41E-06
   0      9    10.150    15.268    0.18E-03    0.20E-03    0.43E-06
   1      9    10.150     5.964    0.16E-03    0.20E-03    0.36E-06
   1      9    10.150     5.382    0.13E-03    0.16E-03    0.33E-06
 Optimization of the real space projectors (new method)

 maximal supplied QI-value         = 19.84
 optimisation between [QCUT,QGAM] = [ 10.12, 20.44] = [ 28.68,116.96] Ry 
 Optimized for a Real-space Cutoff    1.38 Angstroem

   l    n(q)    QCUT    max X(q) W(low)/X(q) W(high)/X(q)  e(spline) 
   0      8    10.119   159.560    0.58E-04    0.11E-03    0.54E-07
   0      8    10.119   115.863    0.56E-04    0.11E-03    0.54E-07
   1      8    10.119    88.339    0.22E-03    0.17E-03    0.19E-06
   1      8    10.119    48.592    0.22E-03    0.17E-03    0.18E-06
  PAW_PBE O 08Apr2002                   :
 energy of atom  1       EATOM= -432.3788
 kinetic energy error for atom=    0.1156 (will be added to EATOM!!)
  PAW_PBE Si 05Jan2001                  :
 energy of atom  2       EATOM= -103.0669
 kinetic energy error for atom=    0.0012 (will be added to EATOM!!)
 
 
 POSCAR: (Si O2)81  (P1) ~ Ciellie_MCM41 (MD #12)
  positions in direct lattice
  velocities in cartesian coordinates
  No initial velocities read in
 exchange correlation table for  LEXCH =        8
   RHO(1)=    0.500       N(1)  =     2000
   RHO(2)=  100.500       N(2)  =     4000
 


--------------------------------------------------------------------------------------------------------


 ion  position               nearest neighbor table
   1  0.069  0.138  0.000- 165 1.59 170 1.59
   2  0.264  0.069  0.111- 192 1.59 163 1.59
   3  0.195  0.264  0.222- 172 1.59 164 1.59
   4  0.264  0.195  0.000- 192 1.59 170 1.59
   5  0.069  0.264  0.111- 165 1.59 172 1.59
   6  0.138  0.069  0.222- 163 1.59 164 1.59
   7  0.069  0.138  0.333- 164 1.59 168 1.59
   8  0.264  0.069  0.444- 195 1.59 166 1.59
   9  0.195  0.264  0.556- 167 1.59 175 1.59
  10  0.264  0.195  0.333- 164 1.59 195 1.59
  11  0.069  0.264  0.444- 168 1.59 175 1.59
  12  0.138  0.069  0.556- 167 1.59 166 1.59
  13  0.069  0.138  0.667- 171 1.59 167 1.59
  14  0.264  0.069  0.778- 169 1.59 198 1.59
  15  0.195  0.264  0.889- 170 1.59 178 1.59
  16  0.264  0.195  0.667- 198 1.59 167 1.59
  17  0.069  0.264  0.778- 178 1.59 171 1.59
  18  0.138  0.069  0.889- 170 1.59 169 1.59
  19  0.069  0.472  0.000- 174 1.59 179 1.59
  20  0.264  0.403  0.111- 201 1.59 172 1.59
  21  0.195  0.597  0.222- 181 1.59 173 1.59
  22  0.264  0.528  0.000- 179 1.59 201 1.59
  23  0.069  0.597  0.111- 174 1.59 181 1.59
  24  0.138  0.403  0.222- 172 1.59 173 1.59
  25  0.069  0.472  0.333- 173 1.59 177 1.59
  26  0.264  0.403  0.444- 204 1.59 175 1.59
  27  0.195  0.597  0.556- 184 1.59 176 1.59
  28  0.264  0.528  0.333- 173 1.59 204 1.59
  29  0.069  0.597  0.444- 177 1.59 184 1.59
  30  0.138  0.403  0.556- 176 1.59 175 1.59
  31  0.069  0.472  0.667- 180 1.59 176 1.59
  32  0.264  0.403  0.778- 178 1.59 207 1.59
  33  0.195  0.597  0.889- 187 1.59 179 1.59
  34  0.264  0.528  0.667- 207 1.59 176 1.59
  35  0.069  0.597  0.778- 187 1.59 180 1.59
  36  0.138  0.403  0.889- 179 1.59 178 1.59
  37  0.069  0.805  0.000- 183 1.59 188 1.59
  38  0.264  0.736  0.111- 210 1.59 181 1.59
  39  0.195  0.931  0.222- 163 1.59 182 1.59
  40  0.264  0.862  0.000- 188 1.59 210 1.59
  41  0.069  0.931  0.111- 183 1.59 163 1.59
  42  0.138  0.736  0.222- 181 1.59 182 1.59
  43  0.069  0.805  0.333- 186 1.59 182 1.59
  44  0.264  0.736  0.444- 213 1.59 184 1.59
  45  0.195  0.931  0.556- 166 1.59 185 1.59
  46  0.264  0.862  0.333- 182 1.59 213 1.59
  47  0.069  0.931  0.444- 186 1.59 166 1.59
  48  0.138  0.736  0.556- 185 1.59 184 1.59
  49  0.069  0.805  0.667- 189 1.59 185 1.59
  50  0.264  0.736  0.778- 187 1.59 216 1.59
  51  0.195  0.931  0.889- 169 1.59 188 1.59
  52  0.264  0.862  0.667- 216 1.59 185 1.59
  53  0.069  0.931  0.778- 169 1.59 189 1.59
  54  0.138  0.736  0.889- 188 1.59 187 1.59
  55  0.403  0.138  0.000- 192 1.59 197 1.59
  56  0.597  0.069  0.111- 219 1.59 190 1.59
  57  0.528  0.264  0.222- 191 1.59 199 1.59
  58  0.597  0.195  0.000- 219 1.59 197 1.59
  59  0.403  0.264  0.111- 192 1.59 199 1.59
  60  0.472  0.069  0.222- 190 1.59 191 1.59
  61  0.403  0.138  0.333- 191 1.59 195 1.59
  62  0.597  0.069  0.444- 222 1.59 193 1.59
  63  0.528  0.264  0.556- 194 1.59 202 1.59
  64  0.597  0.195  0.333- 222 1.59 191 1.59
  65  0.403  0.264  0.444- 195 1.59 202 1.59
  66  0.472  0.069  0.556- 194 1.59 193 1.59
  67  0.403  0.138  0.667- 198 1.59 194 1.59
  68  0.597  0.069  0.778- 196 1.59 225 1.59
  69  0.528  0.264  0.889- 197 1.59 205 1.59
  70  0.597  0.195  0.667- 225 1.59 194 1.59
  71  0.403  0.264  0.778- 205 1.59 198 1.59
  72  0.472  0.069  0.889- 197 1.59 196 1.59
  73  0.403  0.472  0.000- 201 1.59 206 1.59
  74  0.597  0.403  0.111- 228 1.59 199 1.59
  75  0.528  0.597  0.222- 208 1.59 200 1.59
  76  0.597  0.528  0.000- 228 1.59 206 1.59
  77  0.403  0.597  0.111- 201 1.59 208 1.59
  78  0.472  0.403  0.222- 199 1.59 200 1.59
  79  0.403  0.472  0.333- 200 1.59 204 1.59
  80  0.597  0.403  0.444- 231 1.59 202 1.59
  81  0.528  0.597  0.556- 203 1.59 211 1.59
  82  0.597  0.528  0.333- 200 1.59 231 1.59
  83  0.403  0.597  0.444- 204 1.59 211 1.59
  84  0.472  0.403  0.556- 203 1.59 202 1.59
  85  0.403  0.472  0.667- 207 1.59 203 1.59
  86  0.597  0.403  0.778- 205 1.59 234 1.59
  87  0.528  0.597  0.889- 206 1.59 214 1.59
  88  0.597  0.528  0.667- 234 1.59 203 1.59
  89  0.403  0.597  0.778- 214 1.59 207 1.59
  90  0.472  0.403  0.889- 206 1.59 205 1.59
  91  0.403  0.805  0.000- 210 1.59 215 1.59
  92  0.597  0.736  0.111- 237 1.59 208 1.59
  93  0.528  0.931  0.222- 190 1.59 209 1.59
  94  0.597  0.862  0.000- 237 1.59 215 1.59
  95  0.403  0.931  0.111- 210 1.59 190 1.59
  96  0.472  0.736  0.222- 208 1.59 209 1.59
  97  0.403  0.805  0.333- 213 1.59 209 1.59
  98  0.597  0.736  0.444- 240 1.59 211 1.59
  99  0.528  0.931  0.556- 212 1.59 193 1.59
 100  0.597  0.862  0.333- 209 1.59 240 1.59
 101  0.403  0.931  0.444- 213 1.59 193 1.59
 102  0.472  0.736  0.556- 212 1.59 211 1.59
 103  0.403  0.805  0.667- 216 1.59 212 1.59
 104  0.597  0.736  0.778- 214 1.59 243 1.59
 105  0.528  0.931  0.889- 215 1.59 196 1.59
 106  0.597  0.862  0.667- 243 1.59 212 1.59
 107  0.403  0.931  0.778- 196 1.59 216 1.59
 108  0.472  0.736  0.889- 215 1.59 214 1.59
 109  0.736  0.138  0.000- 224 1.59 219 1.59
 110  0.931  0.069  0.111- 165 1.59 217 1.59
 111  0.862  0.264  0.222- 218 1.59 226 1.59
 112  0.931  0.195  0.000- 165 1.59 224 1.59
 113  0.736  0.264  0.111- 219 1.59 226 1.59
 114  0.805  0.069  0.222- 217 1.59 218 1.59
 115  0.736  0.138  0.333- 218 1.59 222 1.59
 116  0.931  0.069  0.444- 168 1.59 220 1.59
 117  0.862  0.264  0.556- 221 1.59 229 1.59
 118  0.931  0.195  0.333- 168 1.59 218 1.59
 119  0.736  0.264  0.444- 222 1.59 229 1.59
 120  0.805  0.069  0.556- 220 1.59 221 1.59
 121  0.736  0.138  0.667- 221 1.59 225 1.59
 122  0.931  0.069  0.778- 223 1.59 171 1.59
 123  0.862  0.264  0.889- 224 1.59 232 1.59
 124  0.931  0.195  0.667- 171 1.59 221 1.59
 125  0.736  0.264  0.778- 232 1.59 225 1.59
 126  0.805  0.069  0.889- 223 1.59 224 1.59
 127  0.736  0.472  0.000- 233 1.59 228 1.59
 128  0.931  0.403  0.111- 174 1.59 226 1.59
 129  0.862  0.597  0.222- 235 1.59 227 1.59
 130  0.931  0.528  0.000- 174 1.59 233 1.59
 131  0.736  0.597  0.111- 228 1.59 235 1.59
 132  0.805  0.403  0.222- 226 1.59 227 1.59
 133  0.736  0.472  0.333- 227 1.59 231 1.59
 134  0.931  0.403  0.444- 177 1.59 229 1.59
 135  0.862  0.597  0.556- 230 1.59 238 1.59
 136  0.931  0.528  0.333- 227 1.59 177 1.59
 137  0.736  0.597  0.444- 231 1.59 238 1.59
 138  0.805  0.403  0.556- 229 1.59 230 1.59
 139  0.736  0.472  0.667- 230 1.59 234 1.59
 140  0.931  0.403  0.778- 232 1.59 180 1.59
 141  0.862  0.597  0.889- 233 1.59 241 1.59
 142  0.931  0.528  0.667- 180 1.59 230 1.59
 143  0.736  0.597  0.778- 241 1.59 234 1.59
 144  0.805  0.403  0.889- 232 1.59 233 1.59
 145  0.736  0.805  0.000- 237 1.59 242 1.59
 146  0.931  0.736  0.111- 183 1.59 235 1.59
 147  0.862  0.931  0.222- 217 1.59 236 1.59
 148  0.931  0.862  0.000- 183 1.59 242 1.59
 149  0.736  0.931  0.111- 237 1.59 217 1.59
 150  0.805  0.736  0.222- 235 1.59 236 1.59
 151  0.736  0.805  0.333- 236 1.59 240 1.59
 152  0.931  0.736  0.444- 186 1.59 238 1.59
 153  0.862  0.931  0.556- 239 1.59 220 1.59
 154  0.931  0.862  0.333- 236 1.59 186 1.59
 155  0.736  0.931  0.444- 240 1.59 220 1.59
 156  0.805  0.736  0.556- 239 1.59 238 1.59
 157  0.736  0.805  0.667- 243 1.59 239 1.59
 158  0.931  0.736  0.778- 241 1.59 189 1.59
 159  0.862  0.931  0.889- 242 1.59 223 1.59
 160  0.931  0.862  0.667- 189 1.59 239 1.59
 161  0.736  0.931  0.778- 223 1.59 243 1.59
 162  0.805  0.736  0.889- 242 1.59 241 1.59
 163  0.167  0.000  0.167-  39 1.59   2 1.59   6 1.59  41 1.59 192 3.09 182 3.09 164 3.09 183 3.09

 164  0.167  0.167  0.278-  10 1.59   7 1.59   3 1.59   6 1.59 172 3.09 195 3.09 168 3.09 163 3.09

 165  0.000  0.167  0.056-   5 1.59 110 1.59 112 1.59   1 1.59 217 3.09 172 3.09 170 3.09 224 3.09

 166  0.167  0.000  0.500-  45 1.59   8 1.59  12 1.59  47 1.59 195 3.09 185 3.09 167 3.09 186 3.09

 167  0.167  0.167  0.611-   9 1.59  12 1.59  16 1.59  13 1.59 175 3.09 198 3.09 171 3.09 166 3.09

 168  0.000  0.167  0.389-  11 1.59 116 1.59 118 1.59   7 1.59 164 3.09 220 3.09 218 3.09 175 3.09

 169  0.167  0.000  0.833-  14 1.59  51 1.59  53 1.59  18 1.59 198 3.09 188 3.09 170 3.09 189 3.09

 170  0.167  0.167  0.944-  15 1.59  18 1.59   4 1.59   1 1.59 178 3.09 192 3.09 169 3.09 165 3.09

 171  0.000  0.167  0.722- 124 1.59  13 1.59  17 1.59 122 1.59 167 3.09 223 3.09 221 3.09 178 3.09

 172  0.167  0.333  0.167-   3 1.59  20 1.59  24 1.59   5 1.59 164 3.09 201 3.09 173 3.09 165 3.09

 173  0.167  0.500  0.278-  28 1.59  25 1.59  21 1.59  24 1.59 204 3.09 181 3.09 177 3.09 172 3.09

 174  0.000  0.500  0.056- 128 1.59  23 1.59  19 1.59 130 1.59 226 3.09 179 3.09 181 3.09 233 3.09

 175  0.167  0.333  0.500-   9 1.59  26 1.59  30 1.59  11 1.59 167 3.09 204 3.09 176 3.09 168 3.09

 176  0.167  0.500  0.611-  34 1.59  27 1.59  30 1.59  31 1.59 207 3.09 184 3.09 180 3.09 175 3.09

 177  0.000  0.500  0.389- 134 1.59  29 1.59  25 1.59 136 1.59 173 3.09 229 3.09 227 3.09 184 3.09

 178  0.167  0.333  0.833-  32 1.59  15 1.59  17 1.59  36 1.59 170 3.09 207 3.09 179 3.09 171 3.09

 179  0.167  0.500  0.944-  22 1.59  33 1.59  36 1.59  19 1.59 187 3.09 201 3.09 178 3.09 174 3.09

 180  0.000  0.500  0.722-  31 1.59 142 1.59 140 1.59  35 1.59 176 3.09 232 3.09 230 3.09 187 3.09

 181  0.167  0.667  0.167-  21 1.59  38 1.59  42 1.59  23 1.59 210 3.09 182 3.09 173 3.09 174 3.09

 182  0.167  0.833  0.278-  46 1.59  42 1.59  43 1.59  39 1.59 181 3.09 213 3.09 163 3.09 186 3.09

 183  0.000  0.833  0.056- 146 1.59  37 1.59  41 1.59 148 1.59 235 3.09 188 3.09 163 3.09 242 3.09

 184  0.167  0.667  0.500-  27 1.59  44 1.59  48 1.59  29 1.59 213 3.09 185 3.09 176 3.09 177 3.09

 185  0.167  0.833  0.611-  48 1.59  52 1.59  45 1.59  49 1.59 184 3.09 216 3.09 166 3.09 189 3.09

 186  0.000  0.833  0.389- 152 1.59  43 1.59  47 1.59 154 1.59 238 3.09 182 3.09 236 3.09 166 3.09

 187  0.167  0.667  0.833-  50 1.59  33 1.59  35 1.59  54 1.59 216 3.09 188 3.09 179 3.09 180 3.09

 188  0.167  0.833  0.944-  54 1.59  40 1.59  51 1.59  37 1.59 187 3.09 169 3.09 210 3.09 183 3.09

 189  0.000  0.833  0.722-  49 1.59 158 1.59 160 1.59  53 1.59 241 3.09 185 3.09 239 3.09 169 3.09

 190  0.500  0.000  0.167-  93 1.59  60 1.59  56 1.59  95 1.59 209 3.09 219 3.09 191 3.09 210 3.09

 191  0.500  0.167  0.278-  57 1.59  61 1.59  64 1.59  60 1.59 199 3.09 195 3.09 190 3.09 222 3.09

 192  0.333  0.167  0.056-  59 1.59   2 1.59   4 1.59  55 1.59 163 3.09 170 3.09 199 3.09 197 3.09

 193  0.500  0.000  0.500-  99 1.59  62 1.59  66 1.59 101 1.59 212 3.09 222 3.09 194 3.09 213 3.09

 194  0.500  0.167  0.611-  63 1.59  66 1.59  67 1.59  70 1.59 202 3.09 198 3.09 193 3.09 225 3.09

 195  0.333  0.167  0.389-  65 1.59   8 1.59  10 1.59  61 1.59 164 3.09 166 3.09 191 3.09 202 3.09

 196  0.500  0.000  0.833-  68 1.59 107 1.59 105 1.59  72 1.59 215 3.09 225 3.09 197 3.09 216 3.09

 197  0.500  0.167  0.944-  69 1.59  72 1.59  55 1.59  58 1.59 205 3.09 196 3.09 192 3.09 219 3.09

 198  0.333  0.167  0.722-  16 1.59  67 1.59  71 1.59  14 1.59 167 3.09 169 3.09 194 3.09 205 3.09

 199  0.500  0.333  0.167-  57 1.59  78 1.59  74 1.59  59 1.59 191 3.09 228 3.09 200 3.09 192 3.09

 200  0.500  0.500  0.278-  79 1.59  82 1.59  75 1.59  78 1.59 208 3.09 204 3.09 199 3.09 231 3.09

 201  0.333  0.500  0.056-  20 1.59  77 1.59  73 1.59  22 1.59 172 3.09 179 3.09 206 3.09 208 3.09

 202  0.500  0.333  0.500-  63 1.59  80 1.59  84 1.59  65 1.59 194 3.09 231 3.09 203 3.09 195 3.09

 203  0.500  0.500  0.611-  81 1.59  84 1.59  85 1.59  88 1.59 211 3.09 207 3.09 202 3.09 234 3.09

 204  0.333  0.500  0.389-  26 1.59  83 1.59  79 1.59  28 1.59 173 3.09 175 3.09 200 3.09 211 3.09

 205  0.500  0.333  0.833-  86 1.59  71 1.59  69 1.59  90 1.59 197 3.09 234 3.09 206 3.09 198 3.09

 206  0.500  0.500  0.944-  87 1.59  90 1.59  73 1.59  76 1.59 214 3.09 205 3.09 201 3.09 228 3.09

 207  0.333  0.500  0.722-  85 1.59  34 1.59  32 1.59  89 1.59 176 3.09 178 3.09 203 3.09 214 3.09

 208  0.500  0.667  0.167-  75 1.59  96 1.59  92 1.59  77 1.59 209 3.09 237 3.09 200 3.09 201 3.09

 209  0.500  0.833  0.278-  96 1.59  97 1.59 100 1.59  93 1.59 208 3.09 190 3.09 213 3.09 240 3.09

 210  0.333  0.833  0.056-  38 1.59  91 1.59  95 1.59  40 1.59 181 3.09 188 3.09 215 3.09 190 3.09

 211  0.500  0.667  0.500-  81 1.59  98 1.59 102 1.59  83 1.59 212 3.09 240 3.09 203 3.09 204 3.09

 212  0.500  0.833  0.611- 102 1.59  99 1.59 103 1.59 106 1.59 211 3.09 193 3.09 216 3.09 243 3.09

 213  0.333  0.833  0.389-  44 1.59  97 1.59 101 1.59  46 1.59 184 3.09 182 3.09 209 3.09 193 3.09

 214  0.500  0.667  0.833- 104 1.59  89 1.59  87 1.59 108 1.59 215 3.09 243 3.09 206 3.09 207 3.09

 215  0.500  0.833  0.944- 108 1.59 105 1.59  91 1.59  94 1.59 214 3.09 196 3.09 210 3.09 237 3.09

 216  0.333  0.833  0.722- 103 1.59  50 1.59  52 1.59 107 1.59 187 3.09 185 3.09 212 3.09 196 3.09

 217  0.833  0.000  0.167- 114 1.59 147 1.59 149 1.59 110 1.59 236 3.09 165 3.09 218 3.09 237 3.09

 218  0.833  0.167  0.278- 115 1.59 111 1.59 118 1.59 114 1.59 226 3.09 222 3.09 217 3.09 168 3.09

 219  0.667  0.167  0.056- 113 1.59  56 1.59  58 1.59 109 1.59 224 3.09 226 3.09 190 3.09 197 3.09

 220  0.833  0.000  0.500- 120 1.59 155 1.59 153 1.59 116 1.59 239 3.09 168 3.09 221 3.09 240 3.09

 221  0.833  0.167  0.611- 117 1.59 121 1.59 120 1.59 124 1.59 229 3.09 225 3.09 220 3.09 171 3.09

 222  0.667  0.167  0.389- 119 1.59  62 1.59  64 1.59 115 1.59 218 3.09 229 3.09 193 3.09 191 3.09

 223  0.833  0.000  0.833- 161 1.59 122 1.59 126 1.59 159 1.59 242 3.09 171 3.09 224 3.09 243 3.09

 224  0.833  0.167  0.944- 123 1.59 109 1.59 126 1.59 112 1.59 232 3.09 219 3.09 223 3.09 165 3.09

 225  0.667  0.167  0.722-  70 1.59 121 1.59 125 1.59  68 1.59 221 3.09 232 3.09 196 3.09 194 3.09

 226  0.833  0.333  0.167- 132 1.59 111 1.59 113 1.59 128 1.59 218 3.09 219 3.09 174 3.09 227 3.09

 227  0.833  0.500  0.278- 133 1.59 136 1.59 129 1.59 132 1.59 231 3.09 235 3.09 226 3.09 177 3.09

 228  0.667  0.500  0.056-  74 1.59 131 1.59 127 1.59  76 1.59 233 3.09 199 3.09 235 3.09 206 3.09

 229  0.833  0.333  0.500- 138 1.59 119 1.59 117 1.59 134 1.59 221 3.09 222 3.09 177 3.09 230 3.09

 230  0.833  0.500  0.611- 139 1.59 135 1.59 138 1.59 142 1.59 234 3.09 238 3.09 229 3.09 180 3.09

 231  0.667  0.500  0.389-  80 1.59 137 1.59 133 1.59  82 1.59 227 3.09 202 3.09 200 3.09 238 3.09

 232  0.833  0.333  0.833- 125 1.59 140 1.59 144 1.59 123 1.59 224 3.09 225 3.09 180 3.09 233 3.09

 233  0.833  0.500  0.944- 127 1.59 141 1.59 144 1.59 130 1.59 228 3.09 241 3.09 232 3.09 174 3.09

 234  0.667  0.500  0.722- 139 1.59  88 1.59  86 1.59 143 1.59 230 3.09 205 3.09 203 3.09 241 3.09

 235  0.833  0.667  0.167- 150 1.59 129 1.59 131 1.59 146 1.59 236 3.09 183 3.09 227 3.09 228 3.09

 236  0.833  0.833  0.278- 151 1.59 154 1.59 150 1.59 147 1.59 240 3.09 235 3.09 217 3.09 186 3.09

 237  0.667  0.833  0.056-  92 1.59 145 1.59 149 1.59  94 1.59 208 3.09 242 3.09 217 3.09 215 3.09

 238  0.833  0.667  0.500- 156 1.59 137 1.59 135 1.59 152 1.59 239 3.09 186 3.09 230 3.09 231 3.09

 239  0.833  0.833  0.611- 156 1.59 153 1.59 157 1.59 160 1.59 243 3.09 238 3.09 220 3.09 189 3.09

 240  0.667  0.833  0.389-  98 1.59 151 1.59 155 1.59 100 1.59 236 3.09 211 3.09 209 3.09 220 3.09

 241  0.833  0.667  0.833- 143 1.59 158 1.59 162 1.59 141 1.59 242 3.09 189 3.09 233 3.09 234 3.09

 242  0.833  0.833  0.944- 162 1.59 159 1.59 145 1.59 148 1.59 241 3.09 237 3.09 223 3.09 183 3.09

 243  0.667  0.833  0.722- 157 1.59 104 1.59 106 1.59 161 1.59 239 3.09 214 3.09 212 3.09 223 3.09

 
  LATTYP: Found a hexagonal cell.
 ALAT       =    14.9919006152
 C/A-ratio  =     1.0920296712
  
  Lattice vectors:
  
 A1 = (  14.9919003000,   0.0000000000,   0.0000000000)
 A2 = (  -7.4959498300,  12.9833666900,   0.0000000000)
 A3 = (   0.0000003000,   0.0000005200,  16.3716003000)


Analysis of symmetry for initial positions (statically):
=====================================================================
 Subroutine PRICEL returns following result:
 
  LATTYP: Found a hexagonal cell.
 ALAT       =     4.9973001551
 C/A-ratio  =     1.0920296712
  
  Lattice vectors:
  
 A1 = (   4.9973000500,   0.0000000000,   0.0000000000)
 A2 = (  -2.4986499183,   4.3277888534,   0.0000000000)
 A3 = (   0.0000001000,   0.0000001733,   5.4572000454)
 
  27 primitive cells build up your supercell.
 

 Routine SETGRP: Setting up the symmetry group for a 
 hexagonal supercell.


 Subroutine GETGRP returns: Found 12 space group operations
 (whereof  4 operations were pure point group operations)
 out of a pool of 24 trial point group operations.


The static configuration has the point symmetry D_2 .
 The point group associated with its full space group is D_6 .


Analysis of symmetry for dynamics (positions and initial velocities):
=====================================================================
 Subroutine PRICEL returns following result:
 
  LATTYP: Found a hexagonal cell.
 ALAT       =     4.9973001551
 C/A-ratio  =     1.0920296712
  
  Lattice vectors:
  
 A1 = (   4.9973000500,   0.0000000000,   0.0000000000)
 A2 = (  -2.4986499183,   4.3277888534,   0.0000000000)
 A3 = (   0.0000001000,   0.0000001733,   5.4572000454)
 
  27 primitive cells build up your supercell.
 

 Routine SETGRP: Setting up the symmetry group for a 
 hexagonal supercell.


 Subroutine GETGRP returns: Found 12 space group operations
 (whereof  4 operations were pure point group operations)
 out of a pool of 24 trial point group operations.


The dynamic configuration has the point symmetry D_2 .
 The point group associated with its full space group is D_6 .
 
 
 KPOINTS: Automatic mesh                          

Automatic generation of k-mesh.
Space group operators:
 irot       det(A)        alpha          n_x          n_y          n_z        tau_x        tau_y        tau_z
    1     1.000000     0.000000     1.000000     0.000000     0.000000     0.000000     0.000000     0.000000
    2     1.000000   180.000000     0.000000     0.000000     1.000000     0.000000     0.000000     0.000000
    3     1.000000   180.000000     1.000000    -0.000000    -0.000000     0.000000     0.000000     0.000000
    4     1.000000   180.000000     0.000000     1.000000    -0.000000     0.000000     0.000000     0.000000
    5     1.000000    60.000000     0.000000    -0.000000    -1.000000    -0.000000     0.000000     0.111111
    6     1.000000   120.000000     0.000000    -0.000000    -1.000000    -0.000000     0.000000     0.222222
    7     1.000000   120.000000     0.000000     0.000000     1.000000    -0.000000     0.000000     0.111111
    8     1.000000    60.000000     0.000000     0.000000     1.000000    -0.000000     0.000000     0.222222
    9     1.000000   180.000000    -0.866025     0.500000    -0.000000    -0.000000     0.000000     0.222222
   10     1.000000   180.000000    -0.500000     0.866025    -0.000000    -0.000000     0.000000     0.111111
   11     1.000000   180.000000     0.500000     0.866025    -0.000000    -0.000000     0.000000     0.222222
   12     1.000000   180.000000    -0.866025    -0.500000     0.000000    -0.000000     0.000000     0.111111
 
 Subroutine IBZKPT returns following result:
 ===========================================
 
 Found     32 irreducible k-points:
 
 Following reciprocal coordinates:
            Coordinates               Weight
  0.000000  0.000000  0.000000      1.000000
  0.142857 -0.000000  0.000000      6.000000
  0.285714 -0.000000  0.000000      6.000000
  0.428571 -0.000000  0.000000      6.000000
  0.142857  0.142857  0.000000      6.000000
  0.285714  0.142857  0.000000     12.000000
  0.428571  0.142857  0.000000      6.000000
  0.285714  0.285714  0.000000      6.000000
  0.000000  0.000000  0.142857      2.000000
  0.142857 -0.000000  0.142857     12.000000
  0.285714 -0.000000  0.142857     12.000000
  0.428571 -0.000000  0.142857     12.000000
  0.142857  0.142857  0.142857     12.000000
  0.285714  0.142857  0.142857     24.000000
  0.428571  0.142857  0.142857     12.000000
  0.285714  0.285714  0.142857     12.000000
  0.000000  0.000000  0.285714      2.000000
  0.142857 -0.000000  0.285714     12.000000
  0.285714 -0.000000  0.285714     12.000000
  0.428571 -0.000000  0.285714     12.000000
  0.142857  0.142857  0.285714     12.000000
  0.285714  0.142857  0.285714     24.000000
  0.428571  0.142857  0.285714     12.000000
  0.285714  0.285714  0.285714     12.000000
  0.000000  0.000000  0.428571      2.000000
  0.142857 -0.000000  0.428571     12.000000
  0.285714 -0.000000  0.428571     12.000000
  0.428571 -0.000000  0.428571     12.000000
  0.142857  0.142857  0.428571     12.000000
  0.285714  0.142857  0.428571     24.000000
  0.428571  0.142857  0.428571     12.000000
  0.285714  0.285714  0.428571     12.000000
 
 Following cartesian coordinates:
            Coordinates               Weight
  0.000000  0.000000  0.000000      1.000000
  0.009529  0.005502 -0.000000      6.000000
  0.019058  0.011003 -0.000000      6.000000
  0.028587  0.016505 -0.000000      6.000000
  0.009529  0.016505 -0.000000      6.000000
  0.019058  0.022006 -0.000000     12.000000
  0.028587  0.027508 -0.000000      6.000000
  0.019058  0.033009 -0.000000      6.000000
  0.000000  0.000000  0.008726      2.000000
  0.009529  0.005502  0.008726     12.000000
  0.019058  0.011003  0.008726     12.000000
  0.028587  0.016505  0.008726     12.000000
  0.009529  0.016505  0.008726     12.000000
  0.019058  0.022006  0.008726     24.000000
  0.028587  0.027508  0.008726     12.000000
  0.019058  0.033009  0.008726     12.000000
  0.000000  0.000000  0.017452      2.000000
  0.009529  0.005502  0.017452     12.000000
  0.019058  0.011003  0.017452     12.000000
  0.028587  0.016505  0.017452     12.000000
  0.009529  0.016505  0.017452     12.000000
  0.019058  0.022006  0.017452     24.000000
  0.028587  0.027508  0.017452     12.000000
  0.019058  0.033009  0.017452     12.000000
  0.000000  0.000000  0.026178      2.000000
  0.009529  0.005502  0.026178     12.000000
  0.019058  0.011003  0.026178     12.000000
  0.028587  0.016505  0.026178     12.000000
  0.009529  0.016505  0.026178     12.000000
  0.019058  0.022006  0.026178     24.000000
  0.028587  0.027508  0.026178     12.000000
  0.019058  0.033009  0.026178     12.000000
 


--------------------------------------------------------------------------------------------------------




 Dimension of arrays:
   k-points           NKPTS =     32   k-points in BZ     NKDIM =     32   number of bands    NBANDS=    784
   number of dos      NEDOS =    301   number of ions     NIONS =    243
   non local maximal  LDIM  =      4   non local SUM 2l+1 LMDIM =      8
   total plane-waves  NPLWV = ******
   max r-space proj   IRMAX =   4730   max aug-charges    IRDMAX=   1560
   dimension x,y,z NGX =    98 NGY =   98 NGZ =  108
   dimension x,y,z NGXF=    98 NGYF=   98 NGZF=  108
   support grid    NGXF=    98 NGYF=   98 NGZF=  108
   ions per type =             162  81
 NGX,Y,Z   is equivalent  to a cutoff of  10.87, 10.87, 10.97 a.u.
 NGXF,Y,Z  is equivalent  to a cutoff of  10.87, 10.87, 10.97 a.u.


 I would recommend the setting:
   dimension x,y,z NGX =    98 NGY =   98 NGZ =  107
 SYSTEM =  (Si O2)81  (P1) ~ Ciellie_MCM41 (MD     
 POSCAR =  (Si O2)81  (P1) ~ Ciellie_MCM41 (MD #12)

 Startparameter for this run:
   NWRITE =      2    write-flag & timer
   PREC   = accura    normal or accurate (medium, high low for compatibility)
   ISTART =      0    job   : 0-new  1-cont  2-samecut
   ICHARG =      2    charge: 1-file 2-atom 10-const
   ISPIN  =      1    spin polarized calculation?
   LNONCOLLINEAR =      F non collinear calculations
   LSORBIT =      F    spin-orbit coupling
   INIWAV =      1    electr: 0-lowe 1-rand  2-diag
   LASPH  =      F    aspherical Exc in radial PAW
   METAGGA=      F    non-selfconsistent MetaGGA calc.

 Electronic Relaxation 1
   ENCUT  =  400.0 eV  29.40 Ry    5.42 a.u.  24.45 24.45 26.70*2*pi/ulx,y,z
   ENINI  =  400.0     initial cutoff
   ENAUG  =  605.4 eV  augmentation charge cutoff
   NELM   =     60;   NELMIN=  2; NELMDL= -5     # of ELM steps 
   EDIFF  = 0.1E-04   stopping-criterion for ELM
   LREAL  =      T    real-space projection
   NLSPLINE    = F    spline interpolate recip. space projectors
   LCOMPAT=      F    compatible to vasp.4.4
   GGA_COMPAT  = T    GGA compatible to vasp.4.4-vasp.4.6
   LMAXPAW     = -100 max onsite density
   LMAXMIX     =    2 max onsite mixed and CHGCAR
   VOSKOWN=      0    Vosko Wilk Nusair interpolation
   ROPT   =   -0.00025  -0.00025
 Ionic relaxation
   EDIFFG = 0.1E-03   stopping-criterion for IOM
   NSW    =      0    number of steps for IOM
   NBLOCK =      1;   KBLOCK =      1    inner block; outer block 
   IBRION =     -1    ionic relax: 0-MD 1-quasi-New 2-CG
   NFREE  =      0    steps in history (QN), initial steepest desc. (CG)
   ISIF   =      2    stress and relaxation
   IWAVPR =     10    prediction:  0-non 1-charg 2-wave 3-comb
   ISYM   =      2    0-nonsym 1-usesym 2-fastsym
   LCORR  =      T    Harris-Foulkes like correction to forces

   POTIM  = 0.5000    time-step for ionic-motion
   TEIN   =    0.0    initial temperature
   TEBEG  =    0.0;   TEEND  =   0.0 temperature during run
   SMASS  =  -3.00    Nose mass-parameter (am)
   estimated Nose-frequenzy (Omega)   =  0.10E-29 period in steps =****** mass=  -0.514E-26a.u.
   SCALEE = 1.0000    scale energy and forces
   NPACO  =    256;   APACO  = 16.0  distance and # of slots for P.C.
   PSTRESS=    0.0 pullay stress

  Mass of Ions in am
   POMASS =  16.00 28.09
  Ionic Valenz
   ZVAL   =   6.00  4.00
  Atomic Wigner-Seitz radii
   RWIGS  =  -1.00 -1.00
  virtual crystal weights 
   VCA    =   1.00  1.00
   NELECT =    1296.0000    total number of electrons
   NUPDOWN=      -1.0000    fix difference up-down

 DOS related values:
   EMIN   =  10.00;   EMAX   =-10.00  energy-range for DOS
   EFERMI =   0.00
   ISMEAR =     0;   SIGMA  =   0.05  broadening in eV -4-tet -1-fermi 0-gaus

 Electronic relaxation 2 (details)
   IALGO  =     38    algorithm
   LDIAG  =      T    sub-space diagonalisation (order eigenvalues)
   LSUBROT=      F    optimize rotation matrix (better conditioning)
   TURBO    =      0    0=normal 1=particle mesh
   IRESTART =      0    0=no restart 2=restart with 2 vectors
   NREBOOT  =      0    no. of reboots
   NMIN     =      0    reboot dimension
   EREF     =   0.00    reference energy to select bands
   IMIX   =      4    mixing-type and parameters
     AMIX     =   0.40;   BMIX     =  1.00
     AMIX_MAG =   1.60;   BMIX_MAG =  1.00
     AMIN     =   0.10
     WC   =   100.;   INIMIX=   1;  MIXPRE=   1;  MAXMIX= -45

 Intra band minimization:
   WEIMIN = 0.0000     energy-eigenvalue tresh-hold
   EBREAK =  0.32E-08  absolut break condition
   DEPER  =   0.30     relativ break condition  

   TIME   =   0.40     timestep for ELM

  volume/ion in A,a.u.               =      13.11        88.50
  Fermi-wavevector in a.u.,A,eV,Ry     =   1.212918  2.292083 20.016485  1.471170
  Thomas-Fermi vector in A             =   2.348387
 
 Write flags
   LWAVE  =      F    write WAVECAR
   LCHARG =      F    write CHGCAR
   LVTOT  =      F    write LOCPOT, total local potential
   LVHAR  =      F    write LOCPOT, Hartree potential only
   LELF   =      F    write electronic localiz. function (ELF)
   LORBIT =      0    0 simple, 1 ext, 2 COOP (PROOUT)


 Dipole corrections
   LMONO  =      F    monopole corrections only (constant potential shift)
   LDIPOL =      F    correct potential (dipole corrections)
   IDIPOL =      0    1-x, 2-y, 3-z, 4-all directions 
   EPSILON=  1.0000000 bulk dielectric constant

 Exchange correlation treatment:
   GGA     =    --    GGA type
   LEXCH   =     8    internal setting for exchange type
   VOSKOWN=      0    Vosko Wilk Nusair interpolation
   LHFCALC =     F    Hartree Fock is set to
   LHFONE  =     F    Hartree Fock one center treatment
   AEXX    =    0.0000 exact exchange contribution

 Linear response parameters
   LEPSILON=     F    determine dielectric tensor
   LRPA    =     F    only Hartree local field effects (RPA)
   LNABLA  =     F    use nabla operator in PAW spheres
   LVEL    =     F    velocity operator in full k-point grid
   LINTERFAST=   F  fast interpolation
   KINTER  =     0    interpolate to denser k-point grid
   CSHIFT  =0.1000    complex shift for real part using Kramers Kronig
   OMEGAMAX=  -1.0    maximum frequency
   DEG_THRESHOLD= 0.2000000E-02 threshold for treating states as degnerate
   RTIME   =    0.100 relaxation time in fs

 Orbital magnetization related:
   ORBITALMAG=     F  switch on orbital magnetization
   LCHIMAG   =     F  perturbation theory with respect to B field
   DQ        =  0.001000  dq finite difference perturbation B field



--------------------------------------------------------------------------------------------------------


 Static calculation
 charge density and potential will be updated during run
 non-spin polarized calculation
 Variant of blocked Davidson
 Davidson routine will perform the subspace rotation
 perform sub-space diagonalisation
    after iterative eigenvector-optimisation
 modified Broyden-mixing scheme, WC =      100.0
 initial mixing is a Kerker type mixing with AMIX =  0.4000 and BMIX =      1.0000
 Hartree-type preconditioning will be used
 using additional bands          136
 real space projection scheme for non local part
 use partial core corrections
 calculate Harris-corrections to forces 
   (improved forces if not selfconsistent)
 use gradient corrections 
 use of overlap-Matrix (Vanderbilt PP)
 Gauss-broadening in eV      SIGMA  =   0.05


--------------------------------------------------------------------------------------------------------


  energy-cutoff  :      400.00
  volume of cell :     3186.66
      direct lattice vectors                 reciprocal lattice vectors
    14.991900300  0.000000000  0.000000000     0.066702685  0.038510811 -0.000000002
    -7.495949830 12.983366690  0.000000000     0.000000000  0.077021625 -0.000000002
     0.000000300  0.000000520 16.371600300     0.000000000  0.000000000  0.061081384

  length of vectors
    14.991900300 14.991900295 16.371600300     0.077021625  0.077021625  0.061081384


 
 k-points in units of 2pi/SCALE and weight: Automatic mesh                          
   0.00000000  0.00000000  0.00000000       0.003
   0.00952895  0.00550154 -0.00000000       0.017
   0.01905791  0.01100309 -0.00000000       0.017
   0.02858686  0.01650463 -0.00000000       0.017
   0.00952895  0.01650463 -0.00000000       0.017
   0.01905791  0.02200618 -0.00000000       0.035
   0.02858686  0.02750772 -0.00000000       0.017
   0.01905791  0.03300927 -0.00000000       0.017
   0.00000000  0.00000000  0.00872591       0.006
   0.00952895  0.00550154  0.00872591       0.035
   0.01905791  0.01100309  0.00872591       0.035
   0.02858686  0.01650463  0.00872591       0.035
   0.00952895  0.01650463  0.00872591       0.035
   0.01905791  0.02200618  0.00872591       0.070
   0.02858686  0.02750772  0.00872591       0.035
   0.01905791  0.03300927  0.00872591       0.035
   0.00000000  0.00000000  0.01745182       0.006
   0.00952895  0.00550154  0.01745182       0.035
   0.01905791  0.01100309  0.01745182       0.035
   0.02858686  0.01650463  0.01745182       0.035
   0.00952895  0.01650463  0.01745182       0.035
   0.01905791  0.02200618  0.01745182       0.070
   0.02858686  0.02750772  0.01745182       0.035
   0.01905791  0.03300927  0.01745182       0.035
   0.00000000  0.00000000  0.02617774       0.006
   0.00952895  0.00550154  0.02617774       0.035
   0.01905791  0.01100309  0.02617774       0.035
   0.02858686  0.01650463  0.02617773       0.035
   0.00952895  0.01650463  0.02617774       0.035
   0.01905791  0.02200618  0.02617773       0.070
   0.02858686  0.02750772  0.02617773       0.035
   0.01905791  0.03300927  0.02617773       0.035
 
 k-points in reciprocal lattice and weights: Automatic mesh                          
   0.00000000  0.00000000  0.00000000       0.003
   0.14285714 -0.00000000  0.00000000       0.017
   0.28571429 -0.00000000  0.00000000       0.017
   0.42857143 -0.00000000  0.00000000       0.017
   0.14285714  0.14285714  0.00000000       0.017
   0.28571429  0.14285714  0.00000000       0.035
   0.42857143  0.14285714  0.00000000       0.017
   0.28571429  0.28571429  0.00000000       0.017
   0.00000000  0.00000000  0.14285714       0.006
   0.14285714 -0.00000000  0.14285714       0.035
   0.28571429 -0.00000000  0.14285714       0.035
   0.42857143 -0.00000000  0.14285714       0.035
   0.14285714  0.14285714  0.14285714       0.035
   0.28571429  0.14285714  0.14285714       0.070
   0.42857143  0.14285714  0.14285714       0.035
   0.28571429  0.28571429  0.14285714       0.035
   0.00000000  0.00000000  0.28571429       0.006
   0.14285714 -0.00000000  0.28571429       0.035
   0.28571429 -0.00000000  0.28571429       0.035
   0.42857143 -0.00000000  0.28571429       0.035
   0.14285714  0.14285714  0.28571429       0.035
   0.28571429  0.14285714  0.28571429       0.070
   0.42857143  0.14285714  0.28571429       0.035
   0.28571429  0.28571429  0.28571429       0.035
   0.00000000  0.00000000  0.42857143       0.006
   0.14285714 -0.00000000  0.42857143       0.035
   0.28571429 -0.00000000  0.42857143       0.035
   0.42857143 -0.00000000  0.42857143       0.035
   0.14285714  0.14285714  0.42857143       0.035
   0.28571429  0.14285714  0.42857143       0.070
   0.42857143  0.14285714  0.42857143       0.035
   0.28571429  0.28571429  0.42857143       0.035
 
 position of ions in fractional coordinates (direct lattice) 
   0.06921667  0.13843334  0.00000000
   0.26411666  0.06921667  0.11111111
   0.19489999  0.26411666  0.22222222
   0.26411666  0.19489999  0.00000000
   0.06921667  0.26411666  0.11111111
   0.13843334  0.06921667  0.22222222
   0.06921667  0.13843334  0.33333333
   0.26411666  0.06921667  0.44444444
   0.19489999  0.26411666  0.55555556
   0.26411666  0.19489999  0.33333333
   0.06921667  0.26411666  0.44444444
   0.13843334  0.06921667  0.55555556
   0.06921667  0.13843334  0.66666667
   0.26411666  0.06921667  0.77777778
   0.19489999  0.26411666  0.88888889
   0.26411666  0.19489999  0.66666667
   0.06921667  0.26411666  0.77777778
   0.13843334  0.06921667  0.88888889
   0.06921667  0.47176667  0.00000000
   0.26411666  0.40255000  0.11111111
   0.19489999  0.59745000  0.22222222
   0.26411666  0.52823333  0.00000000
   0.06921667  0.59745000  0.11111111
   0.13843334  0.40255000  0.22222222
   0.06921667  0.47176667  0.33333333
   0.26411666  0.40255000  0.44444444
   0.19489999  0.59745000  0.55555556
   0.26411666  0.52823333  0.33333333
   0.06921667  0.59745000  0.44444444
   0.13843334  0.40255000  0.55555556
   0.06921667  0.47176667  0.66666667
   0.26411666  0.40255000  0.77777778
   0.19489999  0.59745000  0.88888889
   0.26411666  0.52823333  0.66666667
   0.06921667  0.59745000  0.77777778
   0.13843334  0.40255000  0.88888889
   0.06921667  0.80510001  0.00000000
   0.26411666  0.73588334  0.11111111
   0.19489999  0.93078333  0.22222222
   0.26411666  0.86156666  0.00000000
   0.06921667  0.93078333  0.11111111
   0.13843334  0.73588334  0.22222222
   0.06921667  0.80510001  0.33333333
   0.26411666  0.73588334  0.44444444
   0.19489999  0.93078333  0.55555556
   0.26411666  0.86156666  0.33333333
   0.06921667  0.93078333  0.44444444
   0.13843334  0.73588334  0.55555556
   0.06921667  0.80510001  0.66666667
   0.26411666  0.73588334  0.77777778
   0.19489999  0.93078333  0.88888889
   0.26411666  0.86156666  0.66666667
   0.06921667  0.93078333  0.77777778
   0.13843334  0.73588334  0.88888889
   0.40255000  0.13843334  0.00000000
   0.59745000  0.06921667  0.11111111
   0.52823333  0.26411666  0.22222222
   0.59745000  0.19489999  0.00000000
   0.40255000  0.26411666  0.11111111
   0.47176667  0.06921667  0.22222222
   0.40255000  0.13843334  0.33333333
   0.59745000  0.06921667  0.44444444
   0.52823333  0.26411666  0.55555556
   0.59745000  0.19489999  0.33333333
   0.40255000  0.26411666  0.44444444
   0.47176667  0.06921667  0.55555556
   0.40255000  0.13843334  0.66666667
   0.59745000  0.06921667  0.77777778
   0.52823333  0.26411666  0.88888889
   0.59745000  0.19489999  0.66666667
   0.40255000  0.26411666  0.77777778
   0.47176667  0.06921667  0.88888889
   0.40255000  0.47176667  0.00000000
   0.59745000  0.40255000  0.11111111
   0.52823333  0.59745000  0.22222222
   0.59745000  0.52823333  0.00000000
   0.40255000  0.59745000  0.11111111
   0.47176667  0.40255000  0.22222222
   0.40255000  0.47176667  0.33333333
   0.59745000  0.40255000  0.44444444
   0.52823333  0.59745000  0.55555556
   0.59745000  0.52823333  0.33333333
   0.40255000  0.59745000  0.44444444
   0.47176667  0.40255000  0.55555556
   0.40255000  0.47176667  0.66666667
   0.59745000  0.40255000  0.77777778
   0.52823333  0.59745000  0.88888889
   0.59745000  0.52823333  0.66666667
   0.40255000  0.59745000  0.77777778
   0.47176667  0.40255000  0.88888889
   0.40255000  0.80510001  0.00000000
   0.59745000  0.73588334  0.11111111
   0.52823333  0.93078333  0.22222222
   0.59745000  0.86156666  0.00000000
   0.40255000  0.93078333  0.11111111
   0.47176667  0.73588334  0.22222222
   0.40255000  0.80510001  0.33333333
   0.59745000  0.73588334  0.44444444
   0.52823333  0.93078333  0.55555556
   0.59745000  0.86156666  0.33333333
   0.40255000  0.93078333  0.44444444
   0.47176667  0.73588334  0.55555556
   0.40255000  0.80510001  0.66666667
   0.59745000  0.73588334  0.77777778
   0.52823333  0.93078333  0.88888889
   0.59745000  0.86156666  0.66666667
   0.40255000  0.93078333  0.77777778
   0.47176667  0.73588334  0.88888889
   0.73588334  0.13843334  0.00000000
   0.93078333  0.06921667  0.11111111
   0.86156666  0.26411666  0.22222222
   0.93078333  0.19489999  0.00000000
   0.73588334  0.26411666  0.11111111
   0.80510001  0.06921667  0.22222222
   0.73588334  0.13843334  0.33333333
   0.93078333  0.06921667  0.44444444
   0.86156666  0.26411666  0.55555556
   0.93078333  0.19489999  0.33333333
   0.73588334  0.26411666  0.44444444
   0.80510001  0.06921667  0.55555556
   0.73588334  0.13843334  0.66666667
   0.93078333  0.06921667  0.77777778
   0.86156666  0.26411666  0.88888889
   0.93078333  0.19489999  0.66666667
   0.73588334  0.26411666  0.77777778
   0.80510001  0.06921667  0.88888889
   0.73588334  0.47176667  0.00000000
   0.93078333  0.40255000  0.11111111
   0.86156666  0.59745000  0.22222222
   0.93078333  0.52823333  0.00000000
   0.73588334  0.59745000  0.11111111
   0.80510001  0.40255000  0.22222222
   0.73588334  0.47176667  0.33333333
   0.93078333  0.40255000  0.44444444
   0.86156666  0.59745000  0.55555556
   0.93078333  0.52823333  0.33333333
   0.73588334  0.59745000  0.44444444
   0.80510001  0.40255000  0.55555556
   0.73588334  0.47176667  0.66666667
   0.93078333  0.40255000  0.77777778
   0.86156666  0.59745000  0.88888889
   0.93078333  0.52823333  0.66666667
   0.73588334  0.59745000  0.77777778
   0.80510001  0.40255000  0.88888889
   0.73588334  0.80510001  0.00000000
   0.93078333  0.73588334  0.11111111
   0.86156666  0.93078333  0.22222222
   0.93078333  0.86156666  0.00000000
   0.73588334  0.93078333  0.11111111
   0.80510001  0.73588334  0.22222222
   0.73588334  0.80510001  0.33333333
   0.93078333  0.73588334  0.44444444
   0.86156666  0.93078333  0.55555556
   0.93078333  0.86156666  0.33333333
   0.73588334  0.93078333  0.44444444
   0.80510001  0.73588334  0.55555556
   0.73588334  0.80510001  0.66666667
   0.93078333  0.73588334  0.77777778
   0.86156666  0.93078333  0.88888889
   0.93078333  0.86156666  0.66666667
   0.73588334  0.93078333  0.77777778
   0.80510001  0.73588334  0.88888889
   0.16666667  0.00000000  0.16666667
   0.16666667  0.16666667  0.27777778
   0.00000000  0.16666667  0.05555556
   0.16666667  0.00000000  0.50000000
   0.16666667  0.16666667  0.61111111
   0.00000000  0.16666667  0.38888889
   0.16666667  0.00000000  0.83333333
   0.16666667  0.16666667  0.94444444
   0.00000000  0.16666667  0.72222222
   0.16666667  0.33333333  0.16666667
   0.16666667  0.50000000  0.27777778
   0.00000000  0.50000000  0.05555556
   0.16666667  0.33333333  0.50000000
   0.16666667  0.50000000  0.61111111
   0.00000000  0.50000000  0.38888889
   0.16666667  0.33333333  0.83333333
   0.16666667  0.50000000  0.94444444
   0.00000000  0.50000000  0.72222222
   0.16666667  0.66666667  0.16666667
   0.16666667  0.83333333  0.27777778
   0.00000000  0.83333333  0.05555556
   0.16666667  0.66666667  0.50000000
   0.16666667  0.83333333  0.61111111
   0.00000000  0.83333333  0.38888889
   0.16666667  0.66666667  0.83333333
   0.16666667  0.83333333  0.94444444
   0.00000000  0.83333333  0.72222222
   0.50000000  0.00000000  0.16666667
   0.50000000  0.16666667  0.27777778
   0.33333333  0.16666667  0.05555556
   0.50000000  0.00000000  0.50000000
   0.50000000  0.16666667  0.61111111
   0.33333333  0.16666667  0.38888889
   0.50000000  0.00000000  0.83333333
   0.50000000  0.16666667  0.94444444
   0.33333333  0.16666667  0.72222222
   0.50000000  0.33333333  0.16666667
   0.50000000  0.50000000  0.27777778
   0.33333333  0.50000000  0.05555556
   0.50000000  0.33333333  0.50000000
   0.50000000  0.50000000  0.61111111
   0.33333333  0.50000000  0.38888889
   0.50000000  0.33333333  0.83333333
   0.50000000  0.50000000  0.94444444
   0.33333333  0.50000000  0.72222222
   0.50000000  0.66666667  0.16666667
   0.50000000  0.83333333  0.27777778
   0.33333333  0.83333333  0.05555556
   0.50000000  0.66666667  0.50000000
   0.50000000  0.83333333  0.61111111
   0.33333333  0.83333333  0.38888889
   0.50000000  0.66666667  0.83333333
   0.50000000  0.83333333  0.94444444
   0.33333333  0.83333333  0.72222222
   0.83333333  0.00000000  0.16666667
   0.83333333  0.16666667  0.27777778
   0.66666667  0.16666667  0.05555556
   0.83333333  0.00000000  0.50000000
   0.83333333  0.16666667  0.61111111
   0.66666667  0.16666667  0.38888889
   0.83333333  0.00000000  0.83333333
   0.83333333  0.16666667  0.94444444
   0.66666667  0.16666667  0.72222222
   0.83333333  0.33333333  0.16666667
   0.83333333  0.50000000  0.27777778
   0.66666667  0.50000000  0.05555556
   0.83333333  0.33333333  0.50000000
   0.83333333  0.50000000  0.61111111
   0.66666667  0.50000000  0.38888889
   0.83333333  0.33333333  0.83333333
   0.83333333  0.50000000  0.94444444
   0.66666667  0.50000000  0.72222222
   0.83333333  0.66666667  0.16666667
   0.83333333  0.83333333  0.27777778
   0.66666667  0.83333333  0.05555556
   0.83333333  0.66666667  0.50000000
   0.83333333  0.83333333  0.61111111
   0.66666667  0.83333333  0.38888889
   0.83333333  0.66666667  0.83333333
   0.83333333  0.83333333  0.94444444
   0.66666667  0.83333333  0.72222222
 
 position of ions in cartesian coordinates  (Angst):
   0.00000004  1.79733082  0.00000000
   3.44076598  0.89866547  1.81906668
   0.94211605  3.42912356  3.63813336
   2.49865009  2.53045804  0.00000000
  -0.94211578  3.42912350  1.81906668
   1.55653421  0.89866552  3.63813336
   0.00000014  1.79733099  5.45720005
   3.44076608  0.89866564  7.27626673
   0.94211615  3.42912373  9.09533357
   2.49865019  2.53045821  5.45720005
  -0.94211568  3.42912368  7.27626673
   1.55653431  0.89866570  9.09533357
   0.00000024  1.79733116 10.91440025
   3.44076618  0.89866581 12.73346694
   0.94211625  3.42912391 14.55253362
   2.49865029  2.53045838 10.91440025
  -0.94211558  3.42912385 12.73346694
   1.55653441  0.89866587 14.55253362
  -2.49864987  6.12511967  0.00000000
   0.94211606  5.22645432  1.81906668
  -1.55653394  7.75691254  3.63813336
   0.00000009  6.85824702  0.00000000
  -3.44076578  7.75691249  1.81906668
  -0.94211571  5.22645438  3.63813336
  -2.49864977  6.12511984  5.45720005
   0.94211616  5.22645449  7.27626673
  -1.55653384  7.75691272  9.09533357
   0.00000019  6.85824719  5.45720005
  -3.44076568  7.75691266  7.27626673
  -0.94211561  5.22645455  9.09533357
  -2.49864967  6.12512002 10.91440025
   0.94211626  5.22645467 12.73346694
  -1.55653374  7.75691289 14.55253362
   0.00000029  6.85824737 10.91440025
  -3.44076558  7.75691283 12.73346694
  -0.94211551  5.22645472 14.55253362
  -4.99729987 10.45290865  0.00000000
  -1.55653393  9.55424330  1.81906668
  -4.05518386 12.08470140  3.63813336
  -2.49864982 11.18603587  0.00000000
  -5.93941570 12.08470134  1.81906668
  -3.44076570  9.55424336  3.63813336
  -4.99729977 10.45290883  5.45720005
  -1.55653383  9.55424348  7.27626673
  -4.05518376 12.08470157  9.09533357
  -2.49864972 11.18603605  5.45720005
  -5.93941560 12.08470151  7.27626673
  -3.44076560  9.55424353  9.09533357
  -4.99729967 10.45290900 10.91440025
  -1.55653373  9.55424365 12.73346694
  -4.05518366 12.08470174 14.55253362
  -2.49864962 11.18603622 10.91440025
  -5.93941550 12.08470169 12.73346694
  -3.44076550  9.55424371 14.55253362
   4.99730009  1.79733082  0.00000000
   8.43806618  0.89866547  1.81906668
   5.93941625  3.42912356  3.63813336
   7.49595029  2.53045804  0.00000000
   4.05518427  3.42912350  1.81906668
   6.55383426  0.89866552  3.63813336
   4.99730019  1.79733099  5.45720005
   8.43806628  0.89866564  7.27626673
   5.93941635  3.42912373  9.09533357
   7.49595039  2.53045821  5.45720005
   4.05518437  3.42912368  7.27626673
   6.55383436  0.89866570  9.09533357
   4.99730029  1.79733116 10.91440025
   8.43806638  0.89866581 12.73346694
   5.93941645  3.42912391 14.55253362
   7.49595049  2.53045838 10.91440025
   4.05518447  3.42912385 12.73346694
   6.55383446  0.89866587 14.55253362
   2.49865018  6.12511967  0.00000000
   5.93941626  5.22645432  1.81906668
   3.44076626  7.75691254  3.63813336
   4.99730029  6.85824702  0.00000000
   1.55653427  7.75691249  1.81906668
   4.05518434  5.22645438  3.63813336
   2.49865028  6.12511984  5.45720005
   5.93941636  5.22645449  7.27626673
   3.44076636  7.75691272  9.09533357
   4.99730039  6.85824719  5.45720005
   1.55653437  7.75691266  7.27626673
   4.05518444  5.22645455  9.09533357
   2.49865038  6.12512002 10.91440025
   5.93941646  5.22645467 12.73346694
   3.44076646  7.75691289 14.55253362
   4.99730049  6.85824737 10.91440025
   1.55653447  7.75691283 12.73346694
   4.05518454  5.22645472 14.55253362
   0.00000018 10.45290865  0.00000000
   3.44076627  9.55424330  1.81906668
   0.94211634 12.08470140  3.63813336
   2.49865038 11.18603587  0.00000000
  -0.94211565 12.08470134  1.81906668
   1.55653435  9.55424336  3.63813336
   0.00000028 10.45290883  5.45720005
   3.44076637  9.55424348  7.27626673
   0.94211644 12.08470157  9.09533357
   2.49865048 11.18603605  5.45720005
  -0.94211555 12.08470151  7.27626673
   1.55653445  9.55424353  9.09533357
   0.00000038 10.45290900 10.91440025
   3.44076647  9.55424365 12.73346694
   0.94211654 12.08470174 14.55253362
   2.49865058 11.18603622 10.91440025
  -0.94211545 12.08470169 12.73346694
   1.55653455  9.55424371 14.55253362
   9.99460029  1.79733082  0.00000000
  13.43536623  0.89866547  1.81906668
  10.93671630  3.42912356  3.63813336
  12.49325034  2.53045804  0.00000000
   9.05248447  3.42912350  1.81906668
  11.55113446  0.89866552  3.63813336
   9.99460039  1.79733099  5.45720005
  13.43536633  0.89866564  7.27626673
  10.93671640  3.42912373  9.09533357
  12.49325044  2.53045821  5.45720005
   9.05248457  3.42912368  7.27626673
  11.55113456  0.89866570  9.09533357
   9.99460049  1.79733116 10.91440025
  13.43536643  0.89866581 12.73346694
  10.93671650  3.42912391 14.55253362
  12.49325054  2.53045838 10.91440025
   9.05248467  3.42912385 12.73346694
  11.55113466  0.89866587 14.55253362
   7.49595038  6.12511967  0.00000000
  10.93671631  5.22645432  1.81906668
   8.43806631  7.75691254  3.63813336
   9.99460034  6.85824702  0.00000000
   6.55383447  7.75691249  1.81906668
   9.05248454  5.22645438  3.63813336
   7.49595048  6.12511984  5.45720005
  10.93671641  5.22645449  7.27626673
   8.43806641  7.75691272  9.09533357
   9.99460044  6.85824719  5.45720005
   6.55383457  7.75691266  7.27626673
   9.05248464  5.22645455  9.09533357
   7.49595058  6.12512002 10.91440025
  10.93671651  5.22645467 12.73346694
   8.43806651  7.75691289 14.55253362
   9.99460054  6.85824737 10.91440025
   6.55383467  7.75691283 12.73346694
   9.05248474  5.22645472 14.55253362
   4.99730038 10.45290865  0.00000000
   8.43806632  9.55424330  1.81906668
   5.93941639 12.08470140  3.63813336
   7.49595043 11.18603587  0.00000000
   4.05518455 12.08470134  1.81906668
   6.55383455  9.55424336  3.63813336
   4.99730048 10.45290883  5.45720005
   8.43806642  9.55424348  7.27626673
   5.93941649 12.08470157  9.09533357
   7.49595053 11.18603605  5.45720005
   4.05518465 12.08470151  7.27626673
   6.55383465  9.55424353  9.09533357
   4.99730058 10.45290900 10.91440025
   8.43806652  9.55424365 12.73346694
   5.93941659 12.08470174 14.55253362
   7.49595063 11.18603622 10.91440025
   4.05518475 12.08470169 12.73346694
   6.55383475  9.55424371 14.55253362
   2.49865015  0.00000009  2.72860010
   1.24932519  2.16389464  4.54766679
  -1.24932498  2.16389452  0.90953342
   2.49865025  0.00000026  8.18580015
   1.24932529  2.16389481 10.00486683
  -1.24932488  2.16389469  6.36673347
   2.49865035  0.00000043 13.64300020
   1.24932539  2.16389498 15.46206688
  -1.24932478  2.16389487 11.82393351
   0.00000023  4.32778894  2.72860010
  -1.24932473  6.49168349  4.54766679
  -3.74797490  6.49168337  0.90953342
   0.00000033  4.32778911  8.18580015
  -1.24932463  6.49168366 10.00486683
  -3.74797480  6.49168355  6.36673347
   0.00000043  4.32778929 13.64300020
  -1.24932453  6.49168384 15.46206688
  -3.74797470  6.49168372 11.82393351
  -2.49864976  8.65557792  2.72860010
  -3.74797465 10.81947234  4.54766679
  -6.24662482 10.81947223  0.90953342
  -2.49864966  8.65557810  8.18580015
  -3.74797455 10.81947252 10.00486683
  -6.24662472 10.81947240  6.36673347
  -2.49864956  8.65557827 13.64300020
  -3.74797445 10.81947269 15.46206688
  -6.24662462 10.81947257 11.82393351
   7.49595020  0.00000009  2.72860010
   6.24662524  2.16389464  4.54766679
   3.74797507  2.16389452  0.90953342
   7.49595030  0.00000026  8.18580015
   6.24662534  2.16389481 10.00486683
   3.74797517  2.16389469  6.36673347
   7.49595040  0.00000043 13.64300020
   6.24662544  2.16389498 15.46206688
   3.74797527  2.16389487 11.82393351
   4.99730028  4.32778894  2.72860010
   3.74797532  6.49168349  4.54766679
   1.24932515  6.49168337  0.90953342
   4.99730038  4.32778911  8.18580015
   3.74797542  6.49168366 10.00486683
   1.24932525  6.49168355  6.36673347
   4.99730048  4.32778929 13.64300020
   3.74797552  6.49168384 15.46206688
   1.24932535  6.49168372 11.82393351
   2.49865029  8.65557792  2.72860010
   1.24932540 10.81947234  4.54766679
  -1.24932477 10.81947223  0.90953342
   2.49865039  8.65557810  8.18580015
   1.24932550 10.81947252 10.00486683
  -1.24932467 10.81947240  6.36673347
   2.49865049  8.65557827 13.64300020
   1.24932560 10.81947269 15.46206688
  -1.24932457 10.81947257 11.82393351
  12.49325025  0.00000009  2.72860010
  11.24392529  2.16389464  4.54766679
   8.74527527  2.16389452  0.90953342
  12.49325035  0.00000026  8.18580015
  11.24392539  2.16389481 10.00486683
   8.74527537  2.16389469  6.36673347
  12.49325045  0.00000043 13.64300020
  11.24392549  2.16389498 15.46206688
   8.74527547  2.16389487 11.82393351
   9.99460033  4.32778894  2.72860010
   8.74527537  6.49168349  4.54766679
   6.24662535  6.49168337  0.90953342
   9.99460043  4.32778911  8.18580015
   8.74527547  6.49168366 10.00486683
   6.24662545  6.49168355  6.36673347
   9.99460053  4.32778929 13.64300020
   8.74527557  6.49168384 15.46206688
   6.24662555  6.49168372 11.82393351
   7.49595034  8.65557792  2.72860010
   6.24662545 10.81947234  4.54766679
   3.74797543 10.81947223  0.90953342
   7.49595044  8.65557810  8.18580015
   6.24662555 10.81947252 10.00486683
   3.74797553 10.81947240  6.36673347
   7.49595054  8.65557827 13.64300020
   6.24662565 10.81947269 15.46206688
   3.74797563 10.81947257 11.82393351
 


--------------------------------------------------------------------------------------------------------


 k-point  1 :   0.0000 0.0000 0.0000  plane waves:   57815
 k-point  2 :   0.1429-0.0000 0.0000  plane waves:   57963
 k-point  3 :   0.2857-0.0000 0.0000  plane waves:   57894
 k-point  4 :   0.4286-0.0000 0.0000  plane waves:   57922
 k-point  5 :   0.1429 0.1429 0.0000  plane waves:   57911
 k-point  6 :   0.2857 0.1429 0.0000  plane waves:   57853
 k-point  7 :   0.4286 0.1429 0.0000  plane waves:   57862
 k-point  8 :   0.2857 0.2857 0.0000  plane waves:   57860
 k-point  9 :   0.0000 0.0000 0.1429  plane waves:   57887
 k-point 10 :   0.1429-0.0000 0.1429  plane waves:   57934
 k-point 11 :   0.2857-0.0000 0.1429  plane waves:   57898
 k-point 12 :   0.4286-0.0000 0.1429  plane waves:   57871
 k-point 13 :   0.1429 0.1429 0.1429  plane waves:   57907
 k-point 14 :   0.2857 0.1429 0.1429  plane waves:   57894
 k-point 15 :   0.4286 0.1429 0.1429  plane waves:   57869
 k-point 16 :   0.2857 0.2857 0.1429  plane waves:   57878
 k-point 17 :   0.0000 0.0000 0.2857  plane waves:   58013
 k-point 18 :   0.1429-0.0000 0.2857  plane waves:   57902
 k-point 19 :   0.2857-0.0000 0.2857  plane waves:   57885
 k-point 20 :   0.4286-0.0000 0.2857  plane waves:   57849
 k-point 21 :   0.1429 0.1429 0.2857  plane waves:   57921
 k-point 22 :   0.2857 0.1429 0.2857  plane waves:   57875
 k-point 23 :   0.4286 0.1429 0.2857  plane waves:   57853
 k-point 24 :   0.2857 0.2857 0.2857  plane waves:   57872
 k-point 25 :   0.0000 0.0000 0.4286  plane waves:   57978
 k-point 26 :   0.1429-0.0000 0.4286  plane waves:   57930
 k-point 27 :   0.2857-0.0000 0.4286  plane waves:   57890
 k-point 28 :   0.4286-0.0000 0.4286  plane waves:   57848
 k-point 29 :   0.1429 0.1429 0.4286  plane waves:   57892
 k-point 30 :   0.2857 0.1429 0.4286  plane waves:   57883
 k-point 31 :   0.4286 0.1429 0.4286  plane waves:   57843
 k-point 32 :   0.2857 0.2857 0.4286  plane waves:   57874

 maximum and minimum number of plane-waves per node :      3894     3811

 maximum number of plane-waves:     58013
 maximum index in each direction: 
   IXMAX=   24   IYMAX=   24   IZMAX=   26
   IXMIN=  -24   IYMIN=  -24   IZMIN=  -27

 NGX is ok and might be reduce to  98
 NGY is ok and might be reduce to  98
 NGZ is ok and might be reduce to 108

 real space projection operators:
  total allocation   :      63603.56 KBytes
  max/ min on nodes  :       4532.62       3927.19


 parallel 3D FFT for wavefunctions:
    minimum data exchange during FFTs selected (reduces bandwidth)
 parallel 3D FFT for charge:
    minimum data exchange during FFTs selected (reduces bandwidth)


 total amount of memory used by VASP on root node   262839. kBytes
========================================================================

   base      :      30000. kBytes
   nonlr-proj:      25032. kBytes
   fftplans  :       2674. kBytes
   grid      :       3575. kBytes
   one-center:         52. kBytes
   wavefun   :     201506. kBytes
 
     INWAV:  cpu time    0.00: real time    0.00
 Broyden mixing: mesh for mixing (old mesh)
   NGX = 49   NGY = 49   NGZ = 53
  (NGX  = 98   NGY  = 98   NGZ  =108)
  gives a total of 127253 points

 initial charge density was supplied:
 charge density of overlapping atoms calculated
 number of electron    1296.0000000 magnetization 
 keeping initial charge density in first step


--------------------------------------------------------------------------------------------------------


 Maximum index for non-local projection operator          498
 Maximum index for augmentation-charges          137 (set IRDMAX)


--------------------------------------------------------------------------------------------------------


 First call to EWALD:  gamma=   0.120
 Maximum number of real-space cells 3x 3x 3
 Maximum number of reciprocal cells 3x 3x 3

 FEWALD executed in parallel
    FEWALD:  cpu time    0.26: real time    0.26


----------------------------------------- Iteration    1(   1)  ---------------------------------------


    POTLOK:  cpu time    0.06: real time    0.06
    SETDIJ:  cpu time    0.00: real time    0.00
     EDDAV:  cpu time   99.08: real time   99.08
       DOS:  cpu time    0.01: real time    0.01
    --------------------------------------------
      LOOP:  cpu time   99.16: real time   99.17

 eigenvalue-minimisations  : 50544
 total energy-change (2. order) : 0.8208210E+04  (-0.5985446E+05)
 number of electron    1296.0000000 magnetization 
 augmentation part     1296.0000000 magnetization 

 Free energy of the ion-electron system (eV)
  ---------------------------------------------------
  alpha Z        PSCENC =      1803.06568644
  Ewald energy   TEWEN  =    -48244.28156214
  -Hartree energ DENC   =    -27084.92649043
  -exchange      EXHF   =         0.00000000
  -V(xc)+E(xc)   XCENC  =      3831.99201685
  PAW double counting   =     63279.04302504   -62145.37184510
  entropy T*S    EENTRO =        -0.04631753
  eigenvalues    EBANDS =     -1606.22731411
  atomic energy  EATOM  =     78374.96320226
  ---------------------------------------------------
  free energy    TOTEN  =      8208.21040127 eV

  energy without entropy =     8208.25671880  energy(sigma->0) =     8208.23356004


--------------------------------------------------------------------------------------------------------




----------------------------------------- Iteration    1(   2)  ---------------------------------------


     EDDAV:  cpu time  111.43: real time  111.48
       DOS:  cpu time    0.01: real time    0.01
    --------------------------------------------
      LOOP:  cpu time  111.45: real time  111.49

 eigenvalue-minimisations  : 58808
 total energy-change (2. order) :-0.9682243E+04  (-0.9489983E+04)
 number of electron    1296.0000000 magnetization 
 augmentation part     1296.0000000 magnetization 

 Free energy of the ion-electron system (eV)
  ---------------------------------------------------
  alpha Z        PSCENC =      1803.06568644
  Ewald energy   TEWEN  =    -48244.28156214
  -Hartree energ DENC   =    -27084.92649043
  -exchange      EXHF   =         0.00000000
  -V(xc)+E(xc)   XCENC  =      3831.99201685
  PAW double counting   =     63279.04302504   -62145.37184510
  entropy T*S    EENTRO =        -0.00000000
  eigenvalues    EBANDS =    -11288.51681498
  atomic energy  EATOM  =     78374.96320226
  ---------------------------------------------------
  free energy    TOTEN  =     -1474.03278207 eV

  energy without entropy =    -1474.03278207  energy(sigma->0) =    -1474.03278207


--------------------------------------------------------------------------------------------------------




----------------------------------------- Iteration    1(   3)  ---------------------------------------


     EDDAV:  cpu time  111.32: real time  111.31
       DOS:  cpu time    0.01: real time    0.01
    --------------------------------------------
      LOOP:  cpu time  111.33: real time  111.33

 eigenvalue-minimisations  : 58632
 total energy-change (2. order) :-0.7000142E+03  (-0.6970232E+03)
 number of electron    1296.0000000 magnetization 
 augmentation part     1296.0000000 magnetization 

 Free energy of the ion-electron system (eV)
  ---------------------------------------------------
  alpha Z        PSCENC =      1803.06568644
  Ewald energy   TEWEN  =    -48244.28156214
  -Hartree energ DENC   =    -27084.92649043
  -exchange      EXHF   =         0.00000000
  -V(xc)+E(xc)   XCENC  =      3831.99201685
  PAW double counting   =     63279.04302504   -62145.37184510
  entropy T*S    EENTRO =        -0.00000000
  eigenvalues    EBANDS =    -11988.53096673
  atomic energy  EATOM  =     78374.96320226
  ---------------------------------------------------
  free energy    TOTEN  =     -2174.04693381 eV

  energy without entropy =    -2174.04693381  energy(sigma->0) =    -2174.04693381


--------------------------------------------------------------------------------------------------------




----------------------------------------- Iteration    1(   4)  ---------------------------------------


     EDDAV:  cpu time  112.44: real time  112.47
       DOS:  cpu time    0.01: real time    0.01
    --------------------------------------------
      LOOP:  cpu time  112.45: real time  112.48

 eigenvalue-minimisations  : 59576
 total energy-change (2. order) :-0.1230218E+02  (-0.1227162E+02)
 number of electron    1296.0000000 magnetization 
 augmentation part     1296.0000000 magnetization 

 Free energy of the ion-electron system (eV)
  ---------------------------------------------------
  alpha Z        PSCENC =      1803.06568644
  Ewald energy   TEWEN  =    -48244.28156214
  -Hartree energ DENC   =    -27084.92649043
  -exchange      EXHF   =         0.00000000
  -V(xc)+E(xc)   XCENC  =      3831.99201685
  PAW double counting   =     63279.04302504   -62145.37184510
  entropy T*S    EENTRO =        -0.00000000
  eigenvalues    EBANDS =    -12000.83314917
  atomic energy  EATOM  =     78374.96320226
  ---------------------------------------------------
  free energy    TOTEN  =     -2186.34911625 eV

  energy without entropy =    -2186.34911625  energy(sigma->0) =    -2186.34911625


--------------------------------------------------------------------------------------------------------




----------------------------------------- Iteration    1(   5)  ---------------------------------------


     EDDAV:  cpu time  111.13: real time  111.17
       DOS:  cpu time    0.01: real time    0.01
    CHARGE:  cpu time    2.33: real time    2.33
    MIXING:  cpu time    0.00: real time    0.00
    --------------------------------------------
      LOOP:  cpu time  113.47: real time  113.52

 eigenvalue-minimisations  : 58584
 total energy-change (2. order) :-0.2908268E+00  (-0.2904382E+00)
 number of electron    1295.9954102 magnetization 
 augmentation part      121.2180324 magnetization 

 Broyden mixing:
  rms(total) = 0.13976E+02    rms(broyden)= 0.13971E+02
  rms(prec ) = 0.14877E+02
  weight for this iteration     100.00

 Free energy of the ion-electron system (eV)
  ---------------------------------------------------
  alpha Z        PSCENC =      1803.06568644
  Ewald energy   TEWEN  =    -48244.28156214
  -Hartree energ DENC   =    -27084.92649043
  -exchange      EXHF   =         0.00000000
  -V(xc)+E(xc)   XCENC  =      3831.99201685
  PAW double counting   =     63279.04302504   -62145.37184510
  entropy T*S    EENTRO =        -0.00000000
  eigenvalues    EBANDS =    -12001.12397597
  atomic energy  EATOM  =     78374.96320226
  ---------------------------------------------------
  free energy    TOTEN  =     -2186.63994305 eV

  energy without entropy =    -2186.63994305  energy(sigma->0) =    -2186.63994305


--------------------------------------------------------------------------------------------------------




----------------------------------------- Iteration    1(   6)  ---------------------------------------


    POTLOK:  cpu time    0.06: real time    0.06
    SETDIJ:  cpu time    0.00: real time    0.00
     EDDAV:  cpu time  107.69: real time  107.70
       DOS:  cpu time    0.01: real time    0.01
    CHARGE:  cpu time    2.23: real time    2.23
    MIXING:  cpu time    0.00: real time    0.00
    --------------------------------------------
      LOOP:  cpu time  109.99: real time  110.00

 eigenvalue-minimisations  : 55912
 total energy-change (2. order) : 0.2694543E+03  (-0.1120347E+03)
 number of electron    1295.9961077 magnetization 
 augmentation part       98.8392992 magnetization 

 Broyden mixing:
  rms(total) = 0.65211E+01    rms(broyden)= 0.65186E+01
  rms(prec ) = 0.66101E+01
  weight for this iteration     100.00

 eigenvalues of (default mixing * dielectric matrix)
  average eigenvalue GAMMA=   1.2270
  1.2270

 Free energy of the ion-electron system (eV)
  ---------------------------------------------------
  alpha Z        PSCENC =      1803.06568644
  Ewald energy   TEWEN  =    -48244.28156214
  -Hartree energ DENC   =    -30119.23384270
  -exchange      EXHF   =         0.00000000
  -V(xc)+E(xc)   XCENC  =      4032.08681591
  PAW double counting   =    120860.82207786  -119786.45450331
  entropy T*S    EENTRO =        -0.00000000
  eigenvalues    EBANDS =     -8838.15347217
  atomic energy  EATOM  =     78374.96320226
  ---------------------------------------------------
  free energy    TOTEN  =     -1917.18559785 eV

  energy without entropy =    -1917.18559785  energy(sigma->0) =    -1917.18559785


--------------------------------------------------------------------------------------------------------




----------------------------------------- Iteration    1(   7)  ---------------------------------------


    POTLOK:  cpu time    0.05: real time    0.05
    SETDIJ:  cpu time    0.00: real time    0.00
     EDDAV:  cpu time  118.96: real time  118.96
       DOS:  cpu time    0.01: real time    0.01
    CHARGE:  cpu time    2.23: real time    2.23
    MIXING:  cpu time    0.00: real time    0.00
    --------------------------------------------
      LOOP:  cpu time  121.26: real time  121.26

 eigenvalue-minimisations  : 63664
 total energy-change (2. order) : 0.1581785E+01  (-0.3238637E+01)
 number of electron    1295.9961686 magnetization 
 augmentation part       96.5344794 magnetization 

 Broyden mixing:
  rms(total) = 0.23327E+01    rms(broyden)= 0.23323E+01
  rms(prec ) = 0.23979E+01
  weight for this iteration     100.00

 eigenvalues of (default mixing * dielectric matrix)
  average eigenvalue GAMMA=   1.3323
  1.2215  1.4431

 Free energy of the ion-electron system (eV)
  ---------------------------------------------------
  alpha Z        PSCENC =      1803.06568644
  Ewald energy   TEWEN  =    -48244.28156214
  -Hartree energ DENC   =    -30625.88577599
  -exchange      EXHF   =         0.00000000
  -V(xc)+E(xc)   XCENC  =      4065.83722818
  PAW double counting   =    188608.27433322  -187537.84916173
  entropy T*S    EENTRO =        -0.00000000
  eigenvalues    EBANDS =     -8359.72776325
  atomic energy  EATOM  =     78374.96320226
  ---------------------------------------------------
  free energy    TOTEN  =     -1915.60381300 eV

  energy without entropy =    -1915.60381300  energy(sigma->0) =    -1915.60381300


--------------------------------------------------------------------------------------------------------




----------------------------------------- Iteration    1(   8)  ---------------------------------------


    POTLOK:  cpu time    0.06: real time    0.06
    SETDIJ:  cpu time    0.01: real time    0.01
     EDDAV:  cpu time  110.84: real time  110.87
       DOS:  cpu time    0.01: real time    0.01
    CHARGE:  cpu time    2.24: real time    2.24
    MIXING:  cpu time    0.00: real time    0.00
    --------------------------------------------
      LOOP:  cpu time  113.16: real time  113.19

 eigenvalue-minimisations  : 58128
 total energy-change (2. order) : 0.3116733E+00  (-0.1953165E+00)
 number of electron    1295.9961518 magnetization 
 augmentation part       97.1310185 magnetization 

 Broyden mixing:
  rms(total) = 0.87708E+00    rms(broyden)= 0.87708E+00
  rms(prec ) = 0.91220E+00
  weight for this iteration     100.00

 eigenvalues of (default mixing * dielectric matrix)
  average eigenvalue GAMMA=   1.5933
  1.1128  1.1128  2.5544

 Free energy of the ion-electron system (eV)
  ---------------------------------------------------
  alpha Z        PSCENC =      1803.06568644
  Ewald energy   TEWEN  =    -48244.28156214
  -Hartree energ DENC   =    -30754.58853786
  -exchange      EXHF   =         0.00000000
  -V(xc)+E(xc)   XCENC  =      4074.53038569
  PAW double counting   =    222819.22052102  -221749.93316681
  entropy T*S    EENTRO =        -0.00000000
  eigenvalues    EBANDS =     -8238.26866834
  atomic energy  EATOM  =     78374.96320226
  ---------------------------------------------------
  free energy    TOTEN  =     -1915.29213973 eV

  energy without entropy =    -1915.29213973  energy(sigma->0) =    -1915.29213973


--------------------------------------------------------------------------------------------------------




----------------------------------------- Iteration    1(   9)  ---------------------------------------


    POTLOK:  cpu time    0.06: real time    0.06
    SETDIJ:  cpu time    0.00: real time    0.00
     EDDAV:  cpu time  107.67: real time  107.68
[...]
     -2.49865      6.12512     10.91440        -0.000000     -0.482562     -0.000000
      0.94212      5.22645     12.73347         0.417911     -0.241281     -0.000000
     -1.55653      7.75691     14.55253         0.417911      0.241281     -0.000000
      0.00000      6.85825     10.91440         0.000000      0.482562     -0.000000
     -3.44077      7.75691     12.73347        -0.417911      0.241281     -0.000000
     -0.94212      5.22645     14.55253        -0.417911     -0.241281      0.000000
     -4.99730     10.45291      0.00000        -0.000000     -0.482562     -0.000000
     -1.55653      9.55424      1.81907         0.417911     -0.241281     -0.000000
     -4.05518     12.08470      3.63813         0.417911      0.241281     -0.000000
     -2.49865     11.18604      0.00000         0.000000      0.482562      0.000000
     -5.93942     12.08470      1.81907        -0.417911      0.241281     -0.000000
     -3.44077      9.55424      3.63813        -0.417911     -0.241281      0.000000
     -4.99730     10.45291      5.45720        -0.000000     -0.482562     -0.000000
     -1.55653      9.55424      7.27627         0.417911     -0.241281     -0.000000
     -4.05518     12.08470      9.09533         0.417911      0.241281     -0.000000
     -2.49865     11.18604      5.45720         0.000000      0.482562     -0.000000
     -5.93942     12.08470      7.27627        -0.417911      0.241281     -0.000000
     -3.44077      9.55424      9.09533        -0.417911     -0.241281     -0.000000
     -4.99730     10.45291     10.91440        -0.000000     -0.482562     -0.000000
     -1.55653      9.55424     12.73347         0.417911     -0.241281     -0.000000
     -4.05518     12.08470     14.55253         0.417911      0.241281     -0.000000
     -2.49865     11.18604     10.91440         0.000000      0.482562     -0.000000
     -5.93942     12.08470     12.73347        -0.417911      0.241281     -0.000000
     -3.44077      9.55424     14.55253        -0.417911     -0.241281      0.000000
      4.99730      1.79733      0.00000        -0.000000     -0.482562     -0.000000
      8.43807      0.89867      1.81907         0.417911     -0.241281     -0.000000
      5.93942      3.42912      3.63813         0.417911      0.241281      0.000000
      7.49595      2.53046      0.00000         0.000000      0.482562     -0.000000
      4.05518      3.42912      1.81907        -0.417911      0.241281     -0.000000
      6.55383      0.89867      3.63813        -0.417911     -0.241281     -0.000000
      4.99730      1.79733      5.45720        -0.000000     -0.482562     -0.000000
      8.43807      0.89867      7.27627         0.417911     -0.241281     -0.000000
      5.93942      3.42912      9.09533         0.417911      0.241281      0.000000
      7.49595      2.53046      5.45720         0.000000      0.482562     -0.000000
      4.05518      3.42912      7.27627        -0.417911      0.241281     -0.000000
      6.55383      0.89867      9.09533        -0.417911     -0.241281     -0.000000
      4.99730      1.79733     10.91440        -0.000000     -0.482562      0.000000
      8.43807      0.89867     12.73347         0.417911     -0.241281      0.000000
      5.93942      3.42912     14.55253         0.417911      0.241281     -0.000000
      7.49595      2.53046     10.91440         0.000000      0.482562     -0.000000
      4.05518      3.42912     12.73347        -0.417911      0.241281      0.000000
      6.55383      0.89867     14.55253        -0.417911     -0.241281     -0.000000
      2.49865      6.12512      0.00000        -0.000000     -0.482562      0.000000
      5.93942      5.22645      1.81907         0.417911     -0.241281     -0.000000
      3.44077      7.75691      3.63813         0.417911      0.241281      0.000000
      4.99730      6.85825      0.00000         0.000000      0.482562     -0.000000
      1.55653      7.75691      1.81907        -0.417911      0.241281     -0.000000
      4.05518      5.22645      3.63813        -0.417911     -0.241281      0.000000
      2.49865      6.12512      5.45720        -0.000000     -0.482562      0.000000
      5.93942      5.22645      7.27627         0.417911     -0.241281     -0.000000
      3.44077      7.75691      9.09533         0.417911      0.241281     -0.000000
      4.99730      6.85825      5.45720         0.000000      0.482562      0.000000
      1.55653      7.75691      7.27627        -0.417911      0.241281     -0.000000
      4.05518      5.22645      9.09533        -0.417911     -0.241281     -0.000000
      2.49865      6.12512     10.91440        -0.000000     -0.482562     -0.000000
      5.93942      5.22645     12.73347         0.417911     -0.241281     -0.000000
      3.44077      7.75691     14.55253         0.417911      0.241281      0.000000
      4.99730      6.85825     10.91440         0.000000      0.482562     -0.000000
      1.55653      7.75691     12.73347        -0.417911      0.241281     -0.000000
      4.05518      5.22645     14.55253        -0.417911     -0.241281      0.000000
      0.00000     10.45291      0.00000        -0.000000     -0.482562      0.000000
      3.44077      9.55424      1.81907         0.417911     -0.241281     -0.000000
      0.94212     12.08470      3.63813         0.417911      0.241281     -0.000000
      2.49865     11.18604      0.00000         0.000000      0.482562      0.000000
     -0.94212     12.08470      1.81907        -0.417911      0.241281     -0.000000
      1.55653      9.55424      3.63813        -0.417911     -0.241281      0.000000
      0.00000     10.45291      5.45720        -0.000000     -0.482562     -0.000000
      3.44077      9.55424      7.27627         0.417911     -0.241281     -0.000000
      0.94212     12.08470      9.09533         0.417911      0.241281      0.000000
      2.49865     11.18604      5.45720         0.000000      0.482562     -0.000000
     -0.94212     12.08470      7.27627        -0.417911      0.241281      0.000000
      1.55653      9.55424      9.09533        -0.417911     -0.241281     -0.000000
      0.00000     10.45291     10.91440        -0.000000     -0.482562     -0.000000
      3.44077      9.55424     12.73347         0.417911     -0.241281     -0.000000
      0.94212     12.08470     14.55253         0.417911      0.241281     -0.000000
      2.49865     11.18604     10.91440         0.000000      0.482562     -0.000000
     -0.94212     12.08470     12.73347        -0.417911      0.241281     -0.000000
      1.55653      9.55424     14.55253        -0.417911     -0.241281      0.000000
      9.99460      1.79733      0.00000        -0.000000     -0.482562     -0.000000
     13.43537      0.89867      1.81907         0.417911     -0.241281      0.000000
     10.93672      3.42912      3.63813         0.417911      0.241281      0.000000
     12.49325      2.53046      0.00000         0.000000      0.482562     -0.000000
      9.05248      3.42912      1.81907        -0.417911      0.241281     -0.000000
     11.55113      0.89867      3.63813        -0.417911     -0.241281      0.000000
      9.99460      1.79733      5.45720        -0.000000     -0.482562     -0.000000
     13.43537      0.89867      7.27627         0.417911     -0.241281     -0.000000
     10.93672      3.42912      9.09533         0.417911      0.241281      0.000000
     12.49325      2.53046      5.45720         0.000000      0.482562     -0.000000
      9.05248      3.42912      7.27627        -0.417911      0.241281     -0.000000
     11.55113      0.89867      9.09533        -0.417911     -0.241281     -0.000000
      9.99460      1.79733     10.91440        -0.000000     -0.482562      0.000000
     13.43537      0.89867     12.73347         0.417911     -0.241281     -0.000000
     10.93672      3.42912     14.55253         0.417911      0.241281      0.000000
     12.49325      2.53046     10.91440         0.000000      0.482562     -0.000000
      9.05248      3.42912     12.73347        -0.417911      0.241281     -0.000000
     11.55113      0.89867     14.55253        -0.417911     -0.241281     -0.000000
      7.49595      6.12512      0.00000        -0.000000     -0.482562     -0.000000
     10.93672      5.22645      1.81907         0.417911     -0.241281     -0.000000
      8.43807      7.75691      3.63813         0.417911      0.241281      0.000000
      9.99460      6.85825      0.00000         0.000000      0.482562     -0.000000
      6.55383      7.75691      1.81907        -0.417911      0.241281     -0.000000
      9.05248      5.22645      3.63813        -0.417911     -0.241281      0.000000
      7.49595      6.12512      5.45720        -0.000000     -0.482562     -0.000000
     10.93672      5.22645      7.27627         0.417911     -0.241281     -0.000000
      8.43807      7.75691      9.09533         0.417911      0.241281      0.000000
      9.99460      6.85825      5.45720         0.000000      0.482562      0.000000
      6.55383      7.75691      7.27627        -0.417911      0.241281      0.000000
      9.05248      5.22645      9.09533        -0.417911     -0.241281     -0.000000
      7.49595      6.12512     10.91440        -0.000000     -0.482562      0.000000
     10.93672      5.22645     12.73347         0.417911     -0.241281     -0.000000
      8.43807      7.75691     14.55253         0.417911      0.241281      0.000000
      9.99460      6.85825     10.91440         0.000000      0.482562     -0.000000
      6.55383      7.75691     12.73347        -0.417911      0.241281      0.000000
      9.05248      5.22645     14.55253        -0.417911     -0.241281     -0.000000
      4.99730     10.45291      0.00000        -0.000000     -0.482562     -0.000000
      8.43807      9.55424      1.81907         0.417911     -0.241281     -0.000000
      5.93942     12.08470      3.63813         0.417911      0.241281     -0.000000
      7.49595     11.18604      0.00000         0.000000      0.482562      0.000000
      4.05518     12.08470      1.81907        -0.417911      0.241281     -0.000000
      6.55383      9.55424      3.63813        -0.417911     -0.241281      0.000000
      4.99730     10.45291      5.45720        -0.000000     -0.482562     -0.000000
      8.43807      9.55424      7.27627         0.417911     -0.241281     -0.000000
      5.93942     12.08470      9.09533         0.417911      0.241281      0.000000
      7.49595     11.18604      5.45720         0.000000      0.482562      0.000000
      4.05518     12.08470      7.27627        -0.417911      0.241281     -0.000000
      6.55383      9.55424      9.09533        -0.417911     -0.241281     -0.000000
      4.99730     10.45291     10.91440        -0.000000     -0.482562      0.000000
      8.43807      9.55424     12.73347         0.417911     -0.241281     -0.000000
      5.93942     12.08470     14.55253         0.417911      0.241281     -0.000000
      7.49595     11.18604     10.91440         0.000000      0.482562     -0.000000
      4.05518     12.08470     12.73347        -0.417911      0.241281      0.000000
      6.55383      9.55424     14.55253        -0.417911     -0.241281      0.000000
      2.49865      0.00000      2.72860        -0.000000     -0.000000     -0.000000
      1.24933      2.16389      4.54767        -0.000000     -0.000000      0.000000
     -1.24932      2.16389      0.90953        -0.000000     -0.000000      0.000000
      2.49865      0.00000      8.18580        -0.000000     -0.000000     -0.000000
      1.24933      2.16389     10.00487        -0.000000     -0.000000      0.000000
     -1.24932      2.16389      6.36673        -0.000000     -0.000000      0.000000
      2.49865      0.00000     13.64300        -0.000000     -0.000000     -0.000000
      1.24933      2.16389     15.46207        -0.000000     -0.000000      0.000000
     -1.24932      2.16389     11.82393        -0.000000     -0.000000     -0.000000
      0.00000      4.32779      2.72860        -0.000000     -0.000000     -0.000000
     -1.24932      6.49168      4.54767        -0.000000     -0.000000      0.000000
     -3.74797      6.49168      0.90953        -0.000000     -0.000000      0.000000
      0.00000      4.32779      8.18580        -0.000000     -0.000000     -0.000000
     -1.24932      6.49168     10.00487        -0.000000     -0.000000      0.000000
     -3.74797      6.49168      6.36673        -0.000000     -0.000000     -0.000000
      0.00000      4.32779     13.64300        -0.000000     -0.000000     -0.000000
     -1.24932      6.49168     15.46207        -0.000000     -0.000000      0.000000
     -3.74797      6.49168     11.82393        -0.000000     -0.000000      0.000000
     -2.49865      8.65558      2.72860        -0.000000     -0.000000     -0.000000
     -3.74797     10.81947      4.54767        -0.000000     -0.000000      0.000000
     -6.24662     10.81947      0.90953        -0.000000     -0.000000      0.000000
     -2.49865      8.65558      8.18580        -0.000000     -0.000000     -0.000000
     -3.74797     10.81947     10.00487        -0.000000     -0.000000      0.000000
     -6.24662     10.81947      6.36673        -0.000000     -0.000000      0.000000
     -2.49865      8.65558     13.64300        -0.000000     -0.000000     -0.000000
     -3.74797     10.81947     15.46207        -0.000000     -0.000000      0.000000
     -6.24662     10.81947     11.82393        -0.000000     -0.000000      0.000000
      7.49595      0.00000      2.72860        -0.000000     -0.000000     -0.000000
      6.24663      2.16389      4.54767        -0.000000     -0.000000      0.000000
      3.74798      2.16389      0.90953        -0.000000     -0.000000      0.000000
      7.49595      0.00000      8.18580        -0.000000     -0.000000     -0.000000
      6.24663      2.16389     10.00487        -0.000000     -0.000000      0.000000
      3.74798      2.16389      6.36673        -0.000000     -0.000000     -0.000000
      7.49595      0.00000     13.64300        -0.000000     -0.000000     -0.000000
      6.24663      2.16389     15.46207        -0.000000     -0.000000      0.000000
      3.74798      2.16389     11.82393        -0.000000     -0.000000     -0.000000
      4.99730      4.32779      2.72860        -0.000000     -0.000000     -0.000000
      3.74798      6.49168      4.54767        -0.000000     -0.000000      0.000000
      1.24933      6.49168      0.90953        -0.000000     -0.000000      0.000000
      4.99730      4.32779      8.18580        -0.000000     -0.000000     -0.000000
      3.74798      6.49168     10.00487        -0.000000     -0.000000      0.000000
      1.24933      6.49168      6.36673        -0.000000     -0.000000      0.000000
      4.99730      4.32779     13.64300        -0.000000     -0.000000     -0.000000
      3.74798      6.49168     15.46207        -0.000000     -0.000000      0.000000
      1.24933      6.49168     11.82393        -0.000000     -0.000000      0.000000
      2.49865      8.65558      2.72860        -0.000000     -0.000000     -0.000000
      1.24933     10.81947      4.54767        -0.000000     -0.000000      0.000000
     -1.24932     10.81947      0.90953        -0.000000     -0.000000     -0.000000
      2.49865      8.65558      8.18580        -0.000000     -0.000000     -0.000000
      1.24933     10.81947     10.00487        -0.000000     -0.000000      0.000000
     -1.24932     10.81947      6.36673        -0.000000     -0.000000     -0.000000
      2.49865      8.65558     13.64300        -0.000000     -0.000000     -0.000000
      1.24933     10.81947     15.46207        -0.000000     -0.000000      0.000000
     -1.24932     10.81947     11.82393        -0.000000     -0.000000     -0.000000
     12.49325      0.00000      2.72860        -0.000000     -0.000000     -0.000000
     11.24393      2.16389      4.54767        -0.000000     -0.000000      0.000000
      8.74528      2.16389      0.90953        -0.000000     -0.000000     -0.000000
     12.49325      0.00000      8.18580        -0.000000     -0.000000     -0.000000
     11.24393      2.16389     10.00487        -0.000000     -0.000000      0.000000
      8.74528      2.16389      6.36673        -0.000000     -0.000000      0.000000
     12.49325      0.00000     13.64300        -0.000000     -0.000000     -0.000000
     11.24393      2.16389     15.46207        -0.000000     -0.000000      0.000000
      8.74528      2.16389     11.82393        -0.000000     -0.000000     -0.000000
      9.99460      4.32779      2.72860        -0.000000     -0.000000     -0.000000
      8.74528      6.49168      4.54767        -0.000000     -0.000000      0.000000
      6.24663      6.49168      0.90953        -0.000000     -0.000000      0.000000
      9.99460      4.32779      8.18580        -0.000000     -0.000000     -0.000000
      8.74528      6.49168     10.00487        -0.000000     -0.000000      0.000000
      6.24663      6.49168      6.36673        -0.000000     -0.000000      0.000000
      9.99460      4.32779     13.64300        -0.000000     -0.000000     -0.000000
      8.74528      6.49168     15.46207        -0.000000     -0.000000      0.000000
      6.24663      6.49168     11.82393        -0.000000     -0.000000     -0.000000
      7.49595      8.65558      2.72860        -0.000000     -0.000000     -0.000000
      6.24663     10.81947      4.54767        -0.000000     -0.000000      0.000000
      3.74798     10.81947      0.90953        -0.000000     -0.000000      0.000000
      7.49595      8.65558      8.18580        -0.000000     -0.000000     -0.000000
      6.24663     10.81947     10.00487        -0.000000     -0.000000      0.000000
      3.74798     10.81947      6.36673        -0.000000     -0.000000      0.000000
      7.49595      8.65558     13.64300        -0.000000     -0.000000     -0.000000
      6.24663     10.81947     15.46207        -0.000000     -0.000000      0.000000
      3.74798     10.81947     11.82393        -0.000000     -0.000000      0.000000
 -----------------------------------------------------------------------------------
    total drift:                                0.000001     -0.000001      0.000000


--------------------------------------------------------------------------------------------------------



  FREE ENERGIE OF THE ION-ELECTRON SYSTEM (eV)
  ---------------------------------------------------
  free  energy   TOTEN  =     -1915.58765917 eV

  energy  without entropy=    -1915.58765917  energy(sigma->0) =    -1915.58765917
 


--------------------------------------------------------------------------------------------------------


    POTLOK:  cpu time    0.07: real time    0.08


--------------------------------------------------------------------------------------------------------


     LOOP+:  cpu time 1687.83: real time 1688.20
    4ORBIT:  cpu time    0.00: real time    0.00

 total amount of memory used by VASP on root node   262839. kBytes
========================================================================

   base      :      30000. kBytes
   nonlr-proj:      25032. kBytes
   fftplans  :       2674. kBytes
   grid      :       3575. kBytes
   one-center:         52. kBytes
   wavefun   :     201506. kBytes
 
  
  
 General timing and accounting informations for this job:
 ========================================================
  
                  Total CPU time used (sec):     1780.270
                            User time (sec):     1769.735
                          System time (sec):       10.535
                         Elapsed time (sec):     1782.064
  
                   Maximum memory used (kb):      340644.
                   Average memory used (kb):           0.
  
                          Minor page faults:       206265
                          Major page faults:            6
                 Voluntary context switches:         3524
