 243 243   0   0
  0.1311381E+02  0.1499190E-08  0.1499190E-08  0.1637160E-08  0.5000000E-15
  1.000000000000000E-004
  CAR 
 (Si O2)81  (P1) ~ Ciellie_MCM41 (MD     
     12.61859695    -20.32189858  301      1.10314872      1.00000000
    -20.322  0.0000E+00  0.0000E+00
    -20.212  0.0000E+00  0.0000E+00
    -20.102  0.0000E+00  0.0000E+00
    -19.992  0.0000E+00  0.0000E+00
    -19.883  0.0000E+00  0.0000E+00
    -19.773  0.0000E+00  0.0000E+00
    -19.663  0.0000E+00  0.0000E+00
    -19.553  0.0000E+00  0.0000E+00
    -19.443  0.0000E+00  0.0000E+00
    -19.334  0.0000E+00  0.0000E+00
    -19.224  0.0000E+00  0.0000E+00
    -19.114  0.2022E-14  0.2220E-15
    -19.004  0.3402E-05  0.3735E-06
    -18.894  0.4382E+00  0.4812E-01
    -18.785  0.1542E+02  0.1741E+01
    -18.675  0.4085E+01  0.2190E+01
    -18.565  0.5518E+02  0.8248E+01
    -18.455  0.1066E+03  0.1995E+02
    -18.345  0.1942E+03  0.4128E+02
    -18.236  0.7169E+02  0.4915E+02
    -18.126  0.3698E+02  0.5321E+02
    -18.016  0.7890E+02  0.6187E+02
    -17.906  0.1955E+03  0.8334E+02
    -17.796  0.6354E+02  0.9032E+02
    -17.687  0.7132E+02  0.9815E+02
    -17.577  0.7119E+02  0.1060E+03
    -17.467  0.2918E+02  0.1092E+03
    -17.357  0.4997E+02  0.1147E+03
    -17.247  0.1479E+03  0.1309E+03
    -17.138  0.1346E+03  0.1457E+03
    -17.028  0.1120E+03  0.1580E+03
    -16.918  0.2323E+00  0.1580E+03
    -16.808  0.2502E-01  0.1580E+03
    -16.698  0.1172E+03  0.1709E+03
    -16.589  0.1289E+04  0.3124E+03
    -16.479  0.1055E+03  0.3240E+03
    -16.369  0.7135E-02  0.3240E+03
    -16.259  0.7852E-10  0.3240E+03
    -16.149  0.0000E+00  0.3240E+03
    -16.040  0.0000E+00  0.3240E+03
    -15.930  0.0000E+00  0.3240E+03
    -15.820  0.0000E+00  0.3240E+03
    -15.710  0.0000E+00  0.3240E+03
    -15.600  0.0000E+00  0.3240E+03
    -15.491  0.0000E+00  0.3240E+03
    -15.381  0.0000E+00  0.3240E+03
    -15.271  0.0000E+00  0.3240E+03
    -15.161  0.0000E+00  0.3240E+03
    -15.051  0.0000E+00  0.3240E+03
    -14.942  0.0000E+00  0.3240E+03
    -14.832  0.0000E+00  0.3240E+03
    -14.722  0.0000E+00  0.3240E+03
    -14.612  0.0000E+00  0.3240E+03
    -14.502  0.0000E+00  0.3240E+03
    -14.393  0.0000E+00  0.3240E+03
    -14.283  0.0000E+00  0.3240E+03
    -14.173  0.0000E+00  0.3240E+03
    -14.063  0.0000E+00  0.3240E+03
    -13.953  0.0000E+00  0.3240E+03
    -13.844  0.0000E+00  0.3240E+03
    -13.734  0.0000E+00  0.3240E+03
    -13.624  0.0000E+00  0.3240E+03
    -13.514  0.0000E+00  0.3240E+03
    -13.404  0.0000E+00  0.3240E+03
    -13.295  0.0000E+00  0.3240E+03
    -13.185  0.0000E+00  0.3240E+03
    -13.075  0.0000E+00  0.3240E+03
    -12.965  0.0000E+00  0.3240E+03
    -12.855  0.0000E+00  0.3240E+03
    -12.746  0.0000E+00  0.3240E+03
    -12.636  0.0000E+00  0.3240E+03
    -12.526  0.0000E+00  0.3240E+03
    -12.416  0.0000E+00  0.3240E+03
    -12.306  0.0000E+00  0.3240E+03
    -12.197  0.0000E+00  0.3240E+03
    -12.087  0.0000E+00  0.3240E+03
    -11.977  0.0000E+00  0.3240E+03
    -11.867  0.0000E+00  0.3240E+03
    -11.757  0.0000E+00  0.3240E+03
    -11.648  0.0000E+00  0.3240E+03
    -11.538  0.0000E+00  0.3240E+03
    -11.428  0.0000E+00  0.3240E+03
    -11.318  0.0000E+00  0.3240E+03
    -11.208  0.0000E+00  0.3240E+03
    -11.099  0.0000E+00  0.3240E+03
    -10.989  0.0000E+00  0.3240E+03
    -10.879  0.0000E+00  0.3240E+03
    -10.769  0.0000E+00  0.3240E+03
    -10.659  0.0000E+00  0.3240E+03
    -10.550  0.0000E+00  0.3240E+03
    -10.440  0.0000E+00  0.3240E+03
    -10.330  0.0000E+00  0.3240E+03
    -10.220  0.0000E+00  0.3240E+03
    -10.110  0.0000E+00  0.3240E+03
    -10.001  0.0000E+00  0.3240E+03
     -9.891  0.0000E+00  0.3240E+03
     -9.781  0.0000E+00  0.3240E+03
     -9.671  0.0000E+00  0.3240E+03
     -9.561  0.0000E+00  0.3240E+03
     -9.452  0.0000E+00  0.3240E+03
     -9.342  0.0000E+00  0.3240E+03
     -9.232  0.0000E+00  0.3240E+03
     -9.122  0.4303E-09  0.3240E+03
     -9.012  0.6355E-02  0.3240E+03
     -8.903  0.1162E+02  0.3253E+03
     -8.793  0.2465E+02  0.3280E+03
     -8.683  0.1531E+00  0.3280E+03
     -8.573  0.1715E-06  0.3280E+03
     -8.463  0.1954E-11  0.3280E+03
     -8.354  0.5608E-03  0.3280E+03
     -8.244  0.1596E+02  0.3298E+03
     -8.134  0.1939E+03  0.3510E+03
     -8.024  0.4594E+02  0.3561E+03
     -7.914  0.9623E+02  0.3667E+03
     -7.805  0.3897E+02  0.3709E+03
     -7.695  0.2981E+02  0.3742E+03
     -7.585  0.5231E+02  0.3800E+03
     -7.475  0.4382E+00  0.3800E+03
     -7.365  0.1227E-04  0.3800E+03
     -7.256  0.2035E+01  0.3802E+03
     -7.146  0.9050E+02  0.3902E+03
     -7.036  0.1675E+02  0.3920E+03
     -6.926  0.2198E-02  0.3920E+03
     -6.816  0.5463E+01  0.3926E+03
     -6.706  0.8124E+02  0.4015E+03
     -6.597  0.1949E+03  0.4229E+03
     -6.487  0.9826E+01  0.4240E+03
     -6.377  0.3505E+01  0.4244E+03
     -6.267  0.3177E+02  0.4279E+03
     -6.157  0.7475E+02  0.4361E+03
     -6.048  0.7199E+02  0.4440E+03
     -5.938  0.1338E+00  0.4440E+03
     -5.828  0.2178E+00  0.4440E+03
     -5.718  0.1103E+03  0.4561E+03
     -5.608  0.1078E+03  0.4680E+03
     -5.499  0.1977E+00  0.4680E+03
     -5.389  0.5277E-07  0.4680E+03
     -5.279  0.7617E-02  0.4680E+03
     -5.169  0.2092E+02  0.4703E+03
     -5.059  0.1670E+03  0.4886E+03
     -4.950  0.2392E+03  0.5149E+03
     -4.840  0.2864E+03  0.5463E+03
     -4.730  0.1142E+03  0.5589E+03
     -4.620  0.3383E+02  0.5626E+03
     -4.510  0.1224E+03  0.5760E+03
     -4.401  0.1736E+03  0.5951E+03
     -4.291  0.6031E+02  0.6017E+03
     -4.181  0.2364E+03  0.6277E+03
     -4.071  0.9567E+02  0.6382E+03
     -3.961  0.4888E+02  0.6435E+03
     -3.852  0.2389E+02  0.6462E+03
     -3.742  0.1664E+02  0.6480E+03
     -3.632  0.2396E-01  0.6480E+03
     -3.522  0.4820E-08  0.6480E+03
     -3.412  0.0000E+00  0.6480E+03
     -3.303  0.0000E+00  0.6480E+03
     -3.193  0.0000E+00  0.6480E+03
     -3.083  0.0000E+00  0.6480E+03
     -2.973  0.0000E+00  0.6480E+03
     -2.863  0.0000E+00  0.6480E+03
     -2.754  0.4042E-07  0.6480E+03
     -2.644  0.1031E+00  0.6480E+03
     -2.534  0.5653E+02  0.6542E+03
     -2.424  0.3129E+03  0.6886E+03
     -2.314  0.1164E+03  0.7014E+03
     -2.205  0.3166E+03  0.7361E+03
     -2.095  0.2308E+03  0.7615E+03
     -1.985  0.6513E+02  0.7686E+03
     -1.875  0.1367E+03  0.7836E+03
     -1.765  0.2526E+03  0.8114E+03
     -1.656  0.1798E+03  0.8311E+03
     -1.546  0.1961E+03  0.8526E+03
     -1.436  0.2512E+03  0.8802E+03
     -1.326  0.2715E+03  0.9100E+03
     -1.216  0.2248E+03  0.9347E+03
     -1.107  0.1071E+03  0.9465E+03
     -0.997  0.1393E+03  0.9617E+03
     -0.887  0.3676E+03  0.1002E+04
     -0.777  0.1808E+03  0.1022E+04
     -0.667  0.1520E+03  0.1039E+04
     -0.558  0.2109E+03  0.1062E+04
     -0.448  0.5511E+02  0.1068E+04
     -0.338  0.1424E+03  0.1083E+04
     -0.228  0.2103E+03  0.1107E+04
     -0.118  0.1979E+03  0.1128E+04
     -0.009  0.1571E+03  0.1146E+04
      0.101  0.1159E+03  0.1158E+04
      0.211  0.2785E+03  0.1189E+04
      0.321  0.2514E+03  0.1216E+04
      0.431  0.1369E+03  0.1232E+04
      0.540  0.1311E+03  0.1246E+04
      0.650  0.9944E+02  0.1257E+04
      0.760  0.2831E+03  0.1288E+04
      0.870  0.7299E+02  0.1296E+04
      0.980  0.7110E+00  0.1296E+04
      1.089  0.4007E-05  0.1296E+04
      1.199  0.0000E+00  0.1296E+04
      1.309  0.0000E+00  0.1296E+04
      1.419  0.0000E+00  0.1296E+04
      1.529  0.0000E+00  0.1296E+04
      1.638  0.0000E+00  0.1296E+04
      1.748  0.0000E+00  0.1296E+04
      1.858  0.0000E+00  0.1296E+04
      1.968  0.0000E+00  0.1296E+04
      2.078  0.0000E+00  0.1296E+04
      2.187  0.0000E+00  0.1296E+04
      2.297  0.0000E+00  0.1296E+04
      2.407  0.0000E+00  0.1296E+04
      2.517  0.0000E+00  0.1296E+04
      2.627  0.0000E+00  0.1296E+04
      2.736  0.0000E+00  0.1296E+04
      2.846  0.0000E+00  0.1296E+04
      2.956  0.0000E+00  0.1296E+04
      3.066  0.0000E+00  0.1296E+04
      3.176  0.0000E+00  0.1296E+04
      3.285  0.0000E+00  0.1296E+04
      3.395  0.0000E+00  0.1296E+04
      3.505  0.0000E+00  0.1296E+04
      3.615  0.0000E+00  0.1296E+04
      3.725  0.0000E+00  0.1296E+04
      3.834  0.0000E+00  0.1296E+04
      3.944  0.0000E+00  0.1296E+04
      4.054  0.0000E+00  0.1296E+04
      4.164  0.0000E+00  0.1296E+04
      4.274  0.0000E+00  0.1296E+04
      4.383  0.0000E+00  0.1296E+04
      4.493  0.0000E+00  0.1296E+04
      4.603  0.0000E+00  0.1296E+04
      4.713  0.0000E+00  0.1296E+04
      4.823  0.0000E+00  0.1296E+04
      4.932  0.0000E+00  0.1296E+04
      5.042  0.0000E+00  0.1296E+04
      5.152  0.0000E+00  0.1296E+04
      5.262  0.0000E+00  0.1296E+04
      5.372  0.0000E+00  0.1296E+04
      5.481  0.0000E+00  0.1296E+04
      5.591  0.0000E+00  0.1296E+04
      5.701  0.0000E+00  0.1296E+04
      5.811  0.0000E+00  0.1296E+04
      5.921  0.0000E+00  0.1296E+04
      6.030  0.0000E+00  0.1296E+04
      6.140  0.0000E+00  0.1296E+04
      6.250  0.0000E+00  0.1296E+04
      6.360  0.0000E+00  0.1296E+04
      6.470  0.1860E-12  0.1296E+04
      6.580  0.5064E-04  0.1296E+04
      6.689  0.1373E+01  0.1296E+04
      6.799  0.1597E+02  0.1298E+04
      6.909  0.8665E+00  0.1298E+04
      7.019  0.1640E-04  0.1298E+04
      7.129  0.2831E-13  0.1298E+04
      7.238  0.0000E+00  0.1298E+04
      7.348  0.0000E+00  0.1298E+04
      7.458  0.1462E-08  0.1298E+04
      7.568  0.1253E-01  0.1298E+04
      7.678  0.1406E+02  0.1300E+04
      7.787  0.2227E+02  0.1302E+04
      7.897  0.8847E-01  0.1302E+04
      8.007  0.6312E+01  0.1303E+04
      8.117  0.9611E+02  0.1313E+04
      8.227  0.6862E+01  0.1314E+04
      8.336  0.1928E-03  0.1314E+04
      8.446  0.5318E-12  0.1314E+04
      8.556  0.6186E-05  0.1314E+04
      8.666  0.2202E+01  0.1314E+04
      8.776  0.1689E+03  0.1333E+04
      8.885  0.4744E+02  0.1338E+04
      8.995  0.1106E-01  0.1338E+04
      9.105  0.2933E-09  0.1338E+04
      9.215  0.2685E-10  0.1338E+04
      9.325  0.1302E-02  0.1338E+04
      9.434  0.7090E+01  0.1339E+04
      9.544  0.7394E+02  0.1347E+04
      9.654  0.6447E+02  0.1354E+04
      9.764  0.2874E+00  0.1354E+04
      9.874  0.5757E+02  0.1360E+04
      9.983  0.1967E+03  0.1382E+04
     10.093  0.6725E+02  0.1389E+04
     10.203  0.2022E+03  0.1412E+04
     10.313  0.8783E+02  0.1421E+04
     10.423  0.2206E+03  0.1445E+04
     10.532  0.2300E+03  0.1471E+04
     10.642  0.2975E+03  0.1503E+04
     10.752  0.8646E+02  0.1513E+04
     10.862  0.2384E+03  0.1539E+04
     10.972  0.1096E+03  0.1551E+04
     11.081  0.1099E+03  0.1563E+04
     11.191  0.4446E+02  0.1568E+04
     11.301  0.4629E+00  0.1568E+04
     11.411  0.3405E-05  0.1568E+04
     11.521  0.2022E-14  0.1568E+04
     11.630  0.0000E+00  0.1568E+04
     11.740  0.0000E+00  0.1568E+04
     11.850  0.0000E+00  0.1568E+04
     11.960  0.0000E+00  0.1568E+04
     12.070  0.0000E+00  0.1568E+04
     12.179  0.0000E+00  0.1568E+04
     12.289  0.0000E+00  0.1568E+04
     12.399  0.0000E+00  0.1568E+04
     12.509  0.0000E+00  0.1568E+04
     12.619  0.0000E+00  0.1568E+04
