  243  243    1    1
  0.1311381E+02  0.1499190E-08  0.1499190E-08  0.1637160E-08  0.5000000E-15
  1.000000000000000E-004
  CAR 
 (Si O2)81  (P1) ~ Ciellie_MCM41 (MD     
   1296      1    784
 
  0.0000000E+00  0.0000000E+00  0.0000000E+00  0.1000000E+01
    1      -18.824603
    2      -18.615781
    3      -18.615779
    4      -18.536996
    5      -18.536988
    6      -18.536939
    7      -18.536820
    8      -18.536769
    9      -18.536762
   10      -18.407263
   11      -18.407263
   12      -18.407219
   13      -18.407217
   14      -18.407184
   15      -18.407182
   16      -18.407093
   17      -18.407091
   18      -18.407058
   19      -18.407057
   20      -18.407010
   21      -18.407009
   22      -18.279661
   23      -18.279659
   24      -18.279658
   25      -18.279656
   26      -18.116524
   27      -18.116522
   28      -18.116490
   29      -18.116487
   30      -18.045208
   31      -18.045207
   32      -17.949502
   33      -17.949501
   34      -17.949450
   35      -17.949450
   36      -17.949378
   37      -17.949377
   38      -17.949367
   39      -17.949366
   40      -17.949297
   41      -17.949297
   42      -17.949244
   43      -17.949243
   44      -17.799928
   45      -17.799928
   46      -17.799926
   47      -17.799926
   48      -17.672789
   49      -17.672785
   50      -17.672772
   51      -17.672514
   52      -17.672511
   53      -17.672500
   54      -17.457723
   55      -17.457722
   56      -17.457720
   57      -17.457719
   58      -17.313730
   59      -17.313726
   60      -17.288835
   61      -17.288790
   62      -17.276176
   63      -17.276064
   64      -17.276040
   65      -17.275949
   66      -17.275929
   67      -17.275820
   68      -17.136524
   69      -17.136524
   70      -17.136523
   71      -17.136523
   72      -17.136466
   73      -17.136464
   74      -17.136462
   75      -17.136460
   76      -17.136405
   77      -17.136404
   78      -17.136403
   79      -17.136403
   80      -16.692360
   81      -16.692357
   82      -16.666516
   83      -16.666513
   84      -16.666513
   85      -16.666511
   86      -16.658721
   87      -16.655171
   88      -16.655170
   89      -16.655156
   90      -16.655156
   91      -16.653711
   92      -16.653710
   93      -16.653664
   94      -16.653662
   95      -16.653583
   96      -16.653580
   97      -16.653522
   98      -16.653519
   99      -16.653439
  100      -16.653437
  101      -16.653377
  102      -16.653375
  103      -16.652102
  104      -16.652098
  105      -16.652096
  106      -16.652035
  107      -16.652032
  108      -16.652028
  109      -16.647465
  110      -16.647461
  111      -16.647042
  112      -16.647040
  113      -16.645933
  114      -16.645931
  115      -16.645908
  116      -16.645906
  117      -16.645894
  118      -16.645892
  119      -16.645858
  120      -16.645856
  121      -16.645836
  122      -16.645832
  123      -16.645784
  124      -16.645780
  125      -16.645031
  126      -16.645026
  127      -16.644990
  128      -16.644896
  129      -16.644852
  130      -16.644841
  131      -16.639738
  132      -16.639736
  133      -16.639695
  134      -16.639691
  135      -16.639069
  136      -16.639069
  137      -16.639065
  138      -16.639065
  139      -16.635831
  140      -16.635718
  141      -16.635690
  142      -16.635601
  143      -16.635576
  144      -16.635455
  145      -16.627814
  146      -16.627813
  147      -16.627013
  148      -16.627013
  149      -16.626919
  150      -16.626919
  151      -16.626904
  152      -16.626901
  153      -16.626801
  154      -16.626799
  155      -16.626787
  156      -16.626786
  157      -16.626676
  158      -16.626676
  159      -16.622060
  160      -16.622057
  161      -16.620647
  162      -16.620593
  163       -8.885899
  164       -8.885896
  165       -8.192402
  166       -8.192401
  167       -8.192372
  168       -8.192371
  169       -8.192336
  170       -8.192333
  171       -8.192309
  172       -8.192307
  173       -8.192270
  174       -8.192269
  175       -8.192240
  176       -8.192240
  177       -8.078116
  178       -8.078116
  179       -7.956955
  180       -7.956953
  181       -7.956930
  182       -7.956880
  183       -7.956861
  184       -7.956850
  185       -7.826581
  186       -7.826552
  187       -7.673696
  188       -7.673695
  189       -7.673694
  190       -7.673693
  191       -7.181862
  192       -7.181861
  193       -7.181849
  194       -7.181848
  195       -7.181842
  196       -7.181838
  197       -6.765395
  198       -6.765395
  199       -6.765392
  200       -6.765392
  201       -6.656718
  202       -6.656718
  203       -6.656712
  204       -6.656710
  205       -6.656672
  206       -6.656671
  207       -6.656629
  208       -6.656629
  209       -6.656588
  210       -6.656587
  211       -6.656587
  212       -6.656586
  213       -6.331005
  214       -6.331004
  215       -6.159464
  216       -6.159461
  217       -6.159430
  218       -6.159426
  219       -6.156426
  220       -6.156424
  221       -6.156424
  222       -6.156421
  223       -5.718834
  224       -5.718833
  225       -5.718826
  226       -5.718825
  227       -5.718783
  228       -5.718782
  229       -5.718782
  230       -5.718781
  231       -5.718749
  232       -5.718748
  233       -5.718742
  234       -5.718741
  235       -5.149836
  236       -5.149834
  237       -5.145652
  238       -5.145650
  239       -5.102301
  240       -5.102301
  241       -5.055277
  242       -5.053590
  243       -5.053590
  244       -5.053586
  245       -5.053569
  246       -5.053568
  247       -5.053566
  248       -5.035834
  249       -5.035806
  250       -5.035764
  251       -5.035737
  252       -5.035726
  253       -5.035657
  254       -4.937885
  255       -4.937884
  256       -4.937854
  257       -4.937853
  258       -4.937850
  259       -4.937849
  260       -4.937806
  261       -4.937805
  262       -4.937804
  263       -4.937802
  264       -4.937765
  265       -4.937763
  266       -4.869985
  267       -4.869961
  268       -4.869950
  269       -4.869916
  270       -4.869913
  271       -4.869899
  272       -4.842495
  273       -4.842494
  274       -4.842471
  275       -4.842468
  276       -4.823090
  277       -4.823090
  278       -4.823089
  279       -4.823089
  280       -4.725844
  281       -4.633250
  282       -4.633243
  283       -4.509743
  284       -4.509743
  285       -4.509734
  286       -4.509733
  287       -4.509698
  288       -4.509698
  289       -4.509696
  290       -4.509695
  291       -4.509657
  292       -4.509657
  293       -4.509645
  294       -4.509645
  295       -4.443908
  296       -4.443906
  297       -4.443904
  298       -4.443901
  299       -4.269909
  300       -4.269908
  301       -4.269908
  302       -4.269907
  303       -4.253621
  304       -4.253620
  305       -4.253586
  306       -4.253585
  307       -4.253580
  308       -4.253578
  309       -4.253575
  310       -4.253573
  311       -4.253569
  312       -4.253568
  313       -4.253530
  314       -4.253529
  315       -4.106275
  316       -4.106255
  317       -4.106245
  318       -4.106232
  319       -4.106223
  320       -4.106213
  321       -4.003967
  322       -4.003964
  323       -3.855431
  324       -3.855429
  325       -2.538223
  326       -2.538221
  327       -2.538220
  328       -2.538218
  329       -2.481878
  330       -2.481877
  331       -2.481861
  332       -2.481861
  333       -2.481800
  334       -2.481800
  335       -2.481795
  336       -2.481795
  337       -2.481735
  338       -2.481735
  339       -2.481719
  340       -2.481718
  341       -2.456285
  342       -2.456269
  343       -2.456268
  344       -2.456192
  345       -2.456187
  346       -2.456175
  347       -2.322705
  348       -2.322704
  349       -2.322584
  350       -2.322583
  351       -2.283641
  352       -2.283641
  353       -2.283627
  354       -2.283627
  355       -2.283582
  356       -2.283582
  357       -2.283524
  358       -2.283524
  359       -2.283485
  360       -2.283484
  361       -2.283470
  362       -2.283470
  363       -2.224024
  364       -2.216478
  365       -2.216478
  366       -2.216477
  367       -2.216477
  368       -2.185688
  369       -2.185667
  370       -2.185654
  371       -2.185577
  372       -2.185550
  373       -2.185529
  374       -2.181088
  375       -2.181088
  376       -2.180012
  377       -2.180000
  378       -2.148161
  379       -2.148161
  380       -2.148159
  381       -2.148158
  382       -2.020348
  383       -2.020346
  384       -2.014553
  385       -2.014551
  386       -1.893131
  387       -1.893128
  388       -1.889524
  389       -1.889459
  390       -1.889433
  391       -1.889432
  392       -1.889414
  393       -1.889344
  394       -1.832992
  395       -1.832990
  396       -1.832962
  397       -1.832960
  398       -1.832938
  399       -1.832936
  400       -1.832904
  401       -1.832902
  402       -1.832859
  403       -1.832857
  404       -1.832800
  405       -1.832798
  406       -1.829966
  407       -1.680261
  408       -1.680232
  409       -1.680088
  410       -1.680062
  411       -1.680019
  412       -1.679962
  413       -1.648315
  414       -1.648314
  415       -1.648290
  416       -1.648289
  417       -1.648268
  418       -1.648267
  419       -1.648263
  420       -1.648262
  421       -1.648234
  422       -1.648233
  423       -1.648219
  424       -1.648218
  425       -1.556135
  426       -1.556134
  427       -1.497417
  428       -1.497416
  429       -1.497357
  430       -1.497357
  431       -1.497355
  432       -1.497354
  433       -1.497345
  434       -1.497345
  435       -1.497344
  436       -1.497344
  437       -1.497292
  438       -1.497291
  439       -1.484842
  440       -1.484841
  441       -1.406767
  442       -1.406766
  443       -1.373211
  444       -1.373208
  445       -1.373203
  446       -1.373200
  447       -1.371268
  448       -1.371231
  449       -1.371154
  450       -1.371149
  451       -1.371122
  452       -1.371069
  453       -1.334575
  454       -1.334575
  455       -1.334574
  456       -1.334574
  457       -1.310737
  458       -1.310736
  459       -1.310701
  460       -1.310701
  461       -1.275345
  462       -1.275345
  463       -1.275344
  464       -1.275344
  465       -1.223830
  466       -1.223817
  467       -1.223785
  468       -1.223768
  469       -1.223714
  470       -1.223704
  471       -1.149046
  472       -1.149045
  473       -1.120947
  474       -1.120946
  475       -1.044785
  476       -1.044780
  477       -1.041397
  478       -1.041394
  479       -0.982529
  480       -0.982521
  481       -0.982518
  482       -0.982518
  483       -0.982300
  484       -0.982294
  485       -0.981718
  486       -0.973996
  487       -0.973607
  488       -0.930051
  489       -0.930050
  490       -0.930026
  491       -0.930024
  492       -0.929972
  493       -0.929971
  494       -0.929937
  495       -0.929936
  496       -0.929915
  497       -0.929913
  498       -0.929841
  499       -0.929840
  500       -0.867176
  501       -0.867175
  502       -0.867149
  503       -0.867149
  504       -0.867116
  505       -0.867115
  506       -0.867081
  507       -0.867080
  508       -0.867063
  509       -0.867062
  510       -0.867040
  511       -0.867039
  512       -0.695708
  513       -0.695702
  514       -0.695505
  515       -0.695499
  516       -0.656697
  517       -0.656696
  518       -0.656637
  519       -0.656636
  520       -0.656624
  521       -0.656623
  522       -0.656547
  523       -0.656547
  524       -0.656547
  525       -0.656546
  526       -0.656491
  527       -0.656489
  528       -0.631320
  529       -0.631319
  530       -0.631316
  531       -0.631316
  532       -0.445362
  533       -0.445324
  534       -0.445254
  535       -0.445207
  536       -0.445199
  537       -0.445084
  538       -0.378178
  539       -0.378178
  540       -0.378175
  541       -0.378175
  542       -0.326853
  543       -0.326851
  544       -0.282750
  545       -0.282732
  546       -0.282541
  547       -0.282523
  548       -0.282514
  549       -0.282491
  550       -0.276010
  551       -0.276009
  552       -0.276000
  553       -0.276000
  554       -0.226115
  555       -0.225885
  556       -0.139114
  557       -0.139114
  558       -0.139099
  559       -0.139099
  560       -0.139093
  561       -0.139093
  562       -0.139071
  563       -0.139071
  564       -0.139001
  565       -0.139000
  566       -0.138980
  567       -0.138978
  568       -0.069977
  569       -0.069945
  570       -0.069925
  571       -0.069859
  572       -0.069854
  573       -0.069816
  574        0.078401
  575        0.078401
  576        0.078405
  577        0.078405
  578        0.127679
  579        0.127681
  580        0.127691
  581        0.127693
  582        0.127819
  583        0.127821
  584        0.127829
  585        0.127832
  586        0.127864
  587        0.127867
  588        0.127886
  589        0.127889
  590        0.143445
  591        0.143446
  592        0.143451
  593        0.143451
  594        0.249655
  595        0.249656
  596        0.249664
  597        0.249664
  598        0.249686
  599        0.249686
  600        0.249690
  601        0.249691
  602        0.249715
  603        0.249716
  604        0.249723
  605        0.249724
  606        0.310984
  607        0.310990
  608        0.311190
  609        0.311194
  610        0.318503
  611        0.318518
  612        0.415286
  613        0.415288
  614        0.415293
  615        0.415295
  616        0.436691
  617        0.436694
  618        0.459877
  619        0.459877
  620        0.459900
  621        0.459901
  622        0.459904
  623        0.459907
  624        0.612674
  625        0.661854
  626        0.661855
  627        0.661885
  628        0.661886
  629        0.661895
  630        0.661896
  631        0.661925
  632        0.661926
  633        0.661960
  634        0.661961
  635        0.662015
  636        0.662017
  637        0.727852
  638        0.727857
  639        0.727913
  640        0.727927
  641        0.727943
  642        0.728019
  643        0.730066
  644        0.730067
  645        0.752309
  646        0.752317
  647        0.796421
  648        0.796421
  649        6.740106
  650        7.687730
  651        7.687732
  652        8.062396
  653        8.062463
  654        8.062486
  655        8.062592
  656        8.062742
  657        8.062762
  658        8.747723
  659        8.747725
  660        8.747792
  661        8.747794
  662        8.747797
  663        8.747799
  664        8.747911
  665        8.747913
  666        8.748047
  667        8.748049
  668        8.748054
  669        8.748056
  670        9.464952
  671        9.464953
  672        9.551320
  673        9.551323
  674        9.551955
  675        9.551956
  676        9.552678
  677        9.552710
  678        9.873471
  679        9.873471
  680        9.873493
  681        9.873493
  682        9.906548
  683        9.906590
  684        9.906712
  685        9.906769
  686        9.906807
  687        9.906881
  688        9.940521
  689        9.940522
  690        9.940527
  691        9.940528
  692       10.006353
  693       10.006818
  694       10.131357
  695       10.131358
  696       10.131373
  697       10.131374
  698       10.131483
  699       10.131483
  700       10.131484
  701       10.131485
  702       10.131587
  703       10.131588
  704       10.131617
  705       10.131617
  706       10.202339
  707       10.202345
  708       10.301971
  709       10.302535
  710       10.343219
  711       10.343220
  712       10.343240
  713       10.343241
  714       10.343339
  715       10.343340
  716       10.343381
  717       10.343381
  718       10.343499
  719       10.343499
  720       10.343505
  721       10.343506
  722       10.389577
  723       10.389578
  724       10.489617
  725       10.489646
  726       10.489663
  727       10.489703
  728       10.489763
  729       10.489831
  730       10.507897
  731       10.507913
  732       10.542318
  733       10.542323
  734       10.542378
  735       10.542400
  736       10.542642
  737       10.542653
  738       10.542697
  739       10.542701
  740       10.542817
  741       10.542831
  742       10.542916
  743       10.542929
  744       10.570427
  745       10.570441
  746       10.570446
  747       10.570466
  748       10.570482
  749       10.570583
  750       10.623371
  751       10.623375
  752       10.623387
  753       10.623410
  754       10.772545
  755       10.772565
  756       10.772605
  757       10.772640
  758       10.772675
  759       10.772681
  760       10.772704
  761       10.772738
  762       10.772777
  763       10.772813
  764       10.773100
  765       10.774279
  766       10.825716
  767       10.825776
  768       10.826263
  769       10.827746
  770       10.890472
  771       10.890633
  772       10.890862
  773       10.891078
  774       10.891692
  775       10.895780
  776       11.000345
  777       11.003246
  778       11.016515
  779       11.024384
  780       11.064576
  781       11.066341
  782       11.069703
  783       11.077896
  784       11.121302
