  243  243    1    1
  0.1311381E+02  0.1499190E-08  0.1499190E-08  0.1637160E-08  0.5000000E-15
  1.000000000000000E-004
  CAR 
 (Si O2)81  (P1) ~ Ciellie_MCM41 (MD     
   1296    147    784
 
  0.0000000E+00  0.0000000E+00  0.0000000E+00  0.4551661E-03
    1      -18.824440
    2      -18.615615
    3      -18.615613
    4      -18.536829
    5      -18.536821
    6      -18.536771
    7      -18.536652
    8      -18.536601
    9      -18.536594
   10      -18.407094
   11      -18.407093
   12      -18.407050
   13      -18.407048
   14      -18.407015
   15      -18.407013
   16      -18.406924
   17      -18.406922
   18      -18.406889
   19      -18.406887
   20      -18.406841
   21      -18.406840
   22      -18.279490
   23      -18.279488
   24      -18.279487
   25      -18.279485
   26      -18.116350
   27      -18.116347
   28      -18.116315
   29      -18.116313
   30      -18.045033
   31      -18.045032
   32      -17.949326
   33      -17.949325
   34      -17.949274
   35      -17.949274
   36      -17.949202
   37      -17.949201
   38      -17.949191
   39      -17.949190
   40      -17.949121
   41      -17.949121
   42      -17.949068
   43      -17.949067
   44      -17.799748
   45      -17.799748
   46      -17.799746
   47      -17.799746
   48      -17.672608
   49      -17.672604
   50      -17.672591
   51      -17.672333
   52      -17.672330
   53      -17.672319
   54      -17.457540
   55      -17.457539
   56      -17.457537
   57      -17.457536
   58      -17.313548
   59      -17.313543
   60      -17.288647
   61      -17.288602
   62      -17.275989
   63      -17.275878
   64      -17.275853
   65      -17.275762
   66      -17.275743
   67      -17.275634
   68      -17.136333
   69      -17.136332
   70      -17.136332
   71      -17.136331
   72      -17.136275
   73      -17.136273
   74      -17.136270
   75      -17.136268
   76      -17.136213
   77      -17.136213
   78      -17.136212
   79      -17.136211
   80      -16.692159
   81      -16.692156
   82      -16.666312
   83      -16.666309
   84      -16.666309
   85      -16.666306
   86      -16.658514
   87      -16.654971
   88      -16.654971
   89      -16.654957
   90      -16.654956
   91      -16.653510
   92      -16.653508
   93      -16.653462
   94      -16.653461
   95      -16.653382
   96      -16.653379
   97      -16.653321
   98      -16.653318
   99      -16.653237
  100      -16.653236
  101      -16.653176
  102      -16.653174
  103      -16.651898
  104      -16.651893
  105      -16.651891
  106      -16.651831
  107      -16.651827
  108      -16.651824
  109      -16.647261
  110      -16.647257
  111      -16.646836
  112      -16.646834
  113      -16.645733
  114      -16.645731
  115      -16.645708
  116      -16.645706
  117      -16.645694
  118      -16.645692
  119      -16.645659
  120      -16.645656
  121      -16.645636
  122      -16.645632
  123      -16.645584
  124      -16.645580
  125      -16.644831
  126      -16.644826
  127      -16.644790
  128      -16.644696
  129      -16.644652
  130      -16.644641
  131      -16.639536
  132      -16.639534
  133      -16.639492
  134      -16.639489
  135      -16.638870
  136      -16.638870
  137      -16.638866
  138      -16.638866
  139      -16.635630
  140      -16.635517
  141      -16.635489
  142      -16.635400
  143      -16.635375
  144      -16.635254
  145      -16.627611
  146      -16.627611
  147      -16.626811
  148      -16.626810
  149      -16.626717
  150      -16.626717
  151      -16.626701
  152      -16.626699
  153      -16.626598
  154      -16.626596
  155      -16.626584
  156      -16.626584
  157      -16.626474
  158      -16.626474
  159      -16.621864
  160      -16.621861
  161      -16.620448
  162      -16.620394
  163       -8.885781
  164       -8.885778
  165       -8.192272
  166       -8.192271
  167       -8.192242
  168       -8.192241
  169       -8.192206
  170       -8.192203
  171       -8.192179
  172       -8.192177
  173       -8.192140
  174       -8.192139
  175       -8.192110
  176       -8.192110
  177       -8.077989
  178       -8.077989
  179       -7.956824
  180       -7.956822
  181       -7.956799
  182       -7.956749
  183       -7.956729
  184       -7.956719
  185       -7.826445
  186       -7.826417
  187       -7.673560
  188       -7.673559
  189       -7.673558
  190       -7.673557
  191       -7.181719
  192       -7.181717
  193       -7.181706
  194       -7.181704
  195       -7.181699
  196       -7.181694
  197       -6.765241
  198       -6.765240
  199       -6.765238
  200       -6.765238
  201       -6.656570
  202       -6.656570
  203       -6.656564
  204       -6.656562
  205       -6.656524
  206       -6.656523
  207       -6.656481
  208       -6.656481
  209       -6.656440
  210       -6.656439
  211       -6.656439
  212       -6.656438
  213       -6.330851
  214       -6.330850
  215       -6.159306
  216       -6.159303
  217       -6.159272
  218       -6.159269
  219       -6.156278
  220       -6.156276
  221       -6.156276
  222       -6.156273
  223       -5.718678
  224       -5.718677
  225       -5.718670
  226       -5.718669
  227       -5.718627
  228       -5.718626
  229       -5.718626
  230       -5.718625
  231       -5.718593
  232       -5.718592
  233       -5.718586
  234       -5.718585
  235       -5.149679
  236       -5.149677
  237       -5.145490
  238       -5.145488
  239       -5.102142
  240       -5.102142
  241       -5.055117
  242       -5.053414
  243       -5.053414
  244       -5.053410
  245       -5.053394
  246       -5.053393
  247       -5.053391
  248       -5.035674
  249       -5.035646
  250       -5.035604
  251       -5.035577
  252       -5.035566
  253       -5.035497
  254       -4.937721
  255       -4.937720
  256       -4.937690
  257       -4.937689
  258       -4.937686
  259       -4.937685
  260       -4.937642
  261       -4.937641
  262       -4.937640
  263       -4.937638
  264       -4.937602
  265       -4.937600
  266       -4.869825
  267       -4.869800
  268       -4.869790
  269       -4.869755
  270       -4.869752
  271       -4.869738
  272       -4.842332
  273       -4.842330
  274       -4.842307
  275       -4.842305
  276       -4.822924
  277       -4.822924
  278       -4.822924
  279       -4.822923
  280       -4.725681
  281       -4.633075
  282       -4.633069
  283       -4.509568
  284       -4.509568
  285       -4.509559
  286       -4.509559
  287       -4.509524
  288       -4.509523
  289       -4.509521
  290       -4.509520
  291       -4.509483
  292       -4.509482
  293       -4.509470
  294       -4.509470
  295       -4.443737
  296       -4.443735
  297       -4.443733
  298       -4.443730
  299       -4.269724
  300       -4.269723
  301       -4.269722
  302       -4.269721
  303       -4.253435
  304       -4.253434
  305       -4.253400
  306       -4.253399
  307       -4.253394
  308       -4.253392
  309       -4.253389
  310       -4.253387
  311       -4.253383
  312       -4.253382
  313       -4.253344
  314       -4.253343
  315       -4.106085
  316       -4.106065
  317       -4.106054
  318       -4.106042
  319       -4.106033
  320       -4.106023
  321       -4.003769
  322       -4.003766
  323       -3.855229
  324       -3.855226
  325       -2.538066
  326       -2.538065
  327       -2.538064
  328       -2.538062
  329       -2.481726
  330       -2.481725
  331       -2.481709
  332       -2.481709
  333       -2.481649
  334       -2.481648
  335       -2.481643
  336       -2.481643
  337       -2.481583
  338       -2.481583
  339       -2.481567
  340       -2.481566
  341       -2.456134
  342       -2.456118
  343       -2.456117
  344       -2.456041
  345       -2.456036
  346       -2.456024
  347       -2.322547
  348       -2.322546
  349       -2.322426
  350       -2.322425
  351       -2.283483
  352       -2.283482
  353       -2.283469
  354       -2.283468
  355       -2.283424
  356       -2.283424
  357       -2.283366
  358       -2.283366
  359       -2.283327
  360       -2.283326
  361       -2.283312
  362       -2.283312
  363       -2.223854
  364       -2.216316
  365       -2.216316
  366       -2.216314
  367       -2.216314
  368       -2.185524
  369       -2.185503
  370       -2.185489
  371       -2.185413
  372       -2.185386
  373       -2.185365
  374       -2.180930
  375       -2.180930
  376       -2.179856
  377       -2.179844
  378       -2.147995
  379       -2.147995
  380       -2.147993
  381       -2.147993
  382       -2.020178
  383       -2.020176
  384       -2.014380
  385       -2.014378
  386       -1.892962
  387       -1.892959
  388       -1.889356
  389       -1.889291
  390       -1.889265
  391       -1.889264
  392       -1.889246
  393       -1.889176
  394       -1.832815
  395       -1.832813
  396       -1.832784
  397       -1.832782
  398       -1.832761
  399       -1.832759
  400       -1.832726
  401       -1.832724
  402       -1.832681
  403       -1.832679
  404       -1.832622
  405       -1.832620
  406       -1.829798
  407       -1.680080
  408       -1.680051
  409       -1.679906
  410       -1.679881
  411       -1.679837
  412       -1.679781
  413       -1.648132
  414       -1.648132
  415       -1.648108
  416       -1.648107
  417       -1.648086
  418       -1.648085
  419       -1.648081
  420       -1.648080
  421       -1.648052
  422       -1.648051
  423       -1.648037
  424       -1.648036
  425       -1.555954
  426       -1.555953
  427       -1.497233
  428       -1.497233
  429       -1.497175
  430       -1.497174
  431       -1.497172
  432       -1.497171
  433       -1.497162
  434       -1.497162
  435       -1.497161
  436       -1.497161
  437       -1.497109
  438       -1.497109
  439       -1.484671
  440       -1.484670
  441       -1.406577
  442       -1.406576
  443       -1.373017
  444       -1.373014
  445       -1.373008
  446       -1.373005
  447       -1.371085
  448       -1.371048
  449       -1.370972
  450       -1.370966
  451       -1.370940
  452       -1.370887
  453       -1.334393
  454       -1.334393
  455       -1.334392
  456       -1.334392
  457       -1.310550
  458       -1.310549
  459       -1.310514
  460       -1.310514
  461       -1.275165
  462       -1.275165
  463       -1.275164
  464       -1.275164
  465       -1.223637
  466       -1.223623
  467       -1.223591
  468       -1.223574
  469       -1.223521
  470       -1.223511
  471       -1.148847
  472       -1.148847
  473       -1.120756
  474       -1.120756
  475       -1.044598
  476       -1.044593
  477       -1.041194
  478       -1.041192
  479       -0.982332
  480       -0.982324
  481       -0.982321
  482       -0.982321
  483       -0.982103
  484       -0.982097
  485       -0.981506
  486       -0.973791
  487       -0.973401
  488       -0.929857
  489       -0.929855
  490       -0.929831
  491       -0.929830
  492       -0.929777
  493       -0.929776
  494       -0.929743
  495       -0.929741
  496       -0.929720
  497       -0.929718
  498       -0.929646
  499       -0.929645
  500       -0.866977
  501       -0.866976
  502       -0.866950
  503       -0.866949
  504       -0.866916
  505       -0.866916
  506       -0.866882
  507       -0.866881
  508       -0.866863
  509       -0.866863
  510       -0.866841
  511       -0.866840
  512       -0.695507
  513       -0.695501
  514       -0.695304
  515       -0.695299
  516       -0.656494
  517       -0.656492
  518       -0.656433
  519       -0.656433
  520       -0.656420
  521       -0.656419
  522       -0.656343
  523       -0.656343
  524       -0.656343
  525       -0.656342
  526       -0.656287
  527       -0.656286
  528       -0.631115
  529       -0.631115
  530       -0.631111
  531       -0.631111
  532       -0.445152
  533       -0.445114
  534       -0.445043
  535       -0.444996
  536       -0.444988
  537       -0.444873
  538       -0.377972
  539       -0.377972
  540       -0.377969
  541       -0.377969
  542       -0.326660
  543       -0.326658
  544       -0.282541
  545       -0.282523
  546       -0.282332
  547       -0.282314
  548       -0.282305
  549       -0.282283
  550       -0.275796
  551       -0.275795
  552       -0.275786
  553       -0.275786
  554       -0.225903
  555       -0.225673
  556       -0.138900
  557       -0.138900
  558       -0.138886
  559       -0.138886
  560       -0.138879
  561       -0.138879
  562       -0.138857
  563       -0.138857
  564       -0.138788
  565       -0.138786
  566       -0.138766
  567       -0.138765
  568       -0.069769
  569       -0.069736
  570       -0.069717
  571       -0.069650
  572       -0.069646
  573       -0.069607
  574        0.078617
  575        0.078617
  576        0.078621
  577        0.078621
  578        0.127900
  579        0.127903
  580        0.127912
  581        0.127915
  582        0.128040
  583        0.128043
  584        0.128050
  585        0.128053
  586        0.128086
  587        0.128088
  588        0.128108
  589        0.128110
  590        0.143668
  591        0.143669
  592        0.143674
  593        0.143674
  594        0.249875
  595        0.249876
  596        0.249884
  597        0.249884
  598        0.249905
  599        0.249905
  600        0.249910
  601        0.249910
  602        0.249934
  603        0.249935
  604        0.249942
  605        0.249943
  606        0.311209
  607        0.311215
  608        0.311415
  609        0.311419
  610        0.318721
  611        0.318736
  612        0.415515
  613        0.415517
  614        0.415523
  615        0.415525
  616        0.436923
  617        0.436926
  618        0.460108
  619        0.460109
  620        0.460131
  621        0.460132
  622        0.460135
  623        0.460138
  624        0.612897
  625        0.662086
  626        0.662087
  627        0.662117
  628        0.662118
  629        0.662127
  630        0.662128
  631        0.662157
  632        0.662158
  633        0.662191
  634        0.662193
  635        0.662247
  636        0.662249
  637        0.728086
  638        0.728091
  639        0.728147
  640        0.728161
  641        0.728177
  642        0.728253
  643        0.730295
  644        0.730296
  645        0.752551
  646        0.752559
  647        0.796657
  648        0.796657
  649        6.740176
  650        7.687818
  651        7.687820
  652        8.062478
  653        8.062549
  654        8.062571
  655        8.062675
  656        8.062828
  657        8.062845
  658        8.747818
  659        8.747820
  660        8.747890
  661        8.747891
  662        8.747894
  663        8.747896
  664        8.748007
  665        8.748009
  666        8.748146
  667        8.748148
  668        8.748151
  669        8.748152
  670        9.465055
  671        9.465055
  672        9.551317
  673        9.551320
  674        9.552033
  675        9.552034
  676        9.552755
  677        9.552786
  678        9.873516
  679        9.873516
  680        9.873537
  681        9.873537
  682        9.906609
  683        9.906651
  684        9.906772
  685        9.906829
  686        9.906868
  687        9.906942
  688        9.940639
  689        9.940640
  690        9.940645
  691        9.940646
  692       10.006409
  693       10.006873
  694       10.131455
  695       10.131455
  696       10.131469
  697       10.131470
  698       10.131580
  699       10.131580
  700       10.131581
  701       10.131581
  702       10.131685
  703       10.131686
  704       10.131714
  705       10.131714
  706       10.202428
  707       10.202434
  708       10.302012
  709       10.302574
  710       10.343254
  711       10.343255
  712       10.343275
  713       10.343276
  714       10.343373
  715       10.343374
  716       10.343416
  717       10.343416
  718       10.343534
  719       10.343535
  720       10.343541
  721       10.343541
  722       10.389610
  723       10.389610
  724       10.489660
  725       10.489688
  726       10.489706
  727       10.489745
  728       10.489805
  729       10.489874
  730       10.507942
  731       10.507957
  732       10.542340
  733       10.542346
  734       10.542400
  735       10.542423
  736       10.542664
  737       10.542675
  738       10.542718
  739       10.542722
  740       10.542839
  741       10.542854
  742       10.542938
  743       10.542951
  744       10.570481
  745       10.570496
  746       10.570500
  747       10.570520
  748       10.570536
  749       10.570638
  750       10.623443
  751       10.623447
  752       10.623459
  753       10.623482
  754       10.772603
  755       10.772623
  756       10.772664
  757       10.772698
  758       10.772733
  759       10.772740
  760       10.772762
  761       10.772796
  762       10.772835
  763       10.772871
  764       10.773158
  765       10.774337
  766       10.825787
  767       10.825848
  768       10.826334
  769       10.827816
  770       10.890516
  771       10.890676
  772       10.890905
  773       10.891122
  774       10.891735
  775       10.895821
  776       11.000401
  777       11.003301
  778       11.016571
  779       11.024441
  780       11.064657
  781       11.066422
  782       11.069784
  783       11.077976
  784       11.121365
 
  0.7692308E-01 -0.3265795E-17  0.6391574E-25  0.2730997E-02
    1      -18.822049
    2      -18.614091
    3      -18.614089
    4      -18.574618
    5      -18.554331
    6      -18.554322
    7      -18.516117
    8      -18.516105
    9      -18.498381
   10      -18.430097
   11      -18.430094
   12      -18.417661
   13      -18.417660
   14      -18.417644
   15      -18.417641
   16      -18.395315
   17      -18.395315
   18      -18.395293
   19      -18.395290
   20      -18.385526
   21      -18.385523
   22      -18.280451
   23      -18.280449
   24      -18.280446
   25      -18.280443
   26      -18.156340
   27      -18.156311
   28      -18.077114
   29      -18.077084
   30      -18.044563
   31      -18.044562
   32      -17.963547
   33      -17.963546
   34      -17.956063
   35      -17.956062
   36      -17.956044
   37      -17.956041
   38      -17.941370
   39      -17.941368
   40      -17.941345
   41      -17.941342
   42      -17.934129
   43      -17.934128
   44      -17.802467
   45      -17.802466
   46      -17.802459
   47      -17.802459
   48      -17.719944
   49      -17.697502
   50      -17.697488
   51      -17.649892
   52      -17.649883
   53      -17.624899
   54      -17.452972
   55      -17.452971
   56      -17.452967
   57      -17.452967
   58      -17.313274
   59      -17.313269
   60      -17.291355
   61      -17.288467
   62      -17.276874
   63      -17.276809
   64      -17.276772
   65      -17.275866
   66      -17.275831
   67      -17.274937
   68      -17.182596
   69      -17.182594
   70      -17.161416
   71      -17.161414
   72      -17.161379
   73      -17.161376
   74      -17.114328
   75      -17.114326
   76      -17.114294
   77      -17.114291
   78      -17.088638
   79      -17.088636
   80      -16.697394
   81      -16.697392
   82      -16.665839
   83      -16.665836
   84      -16.665834
   85      -16.665831
   86      -16.658488
   87      -16.655704
   88      -16.655701
   89      -16.654923
   90      -16.654923
   91      -16.654883
   92      -16.654882
   93      -16.654722
   94      -16.654721
   95      -16.654674
   96      -16.654671
   97      -16.652718
   98      -16.652488
   99      -16.652486
  100      -16.652454
  101      -16.652450
  102      -16.652247
  103      -16.652238
  104      -16.651806
  105      -16.651732
  106      -16.651713
  107      -16.651056
  108      -16.651053
  109      -16.647877
  110      -16.647871
  111      -16.647127
  112      -16.647123
  113      -16.646761
  114      -16.646665
  115      -16.646664
  116      -16.646590
  117      -16.646586
  118      -16.645776
  119      -16.645711
  120      -16.645593
  121      -16.645591
  122      -16.645140
  123      -16.645139
  124      -16.645066
  125      -16.645062
  126      -16.644238
  127      -16.644234
  128      -16.644046
  129      -16.643983
  130      -16.643050
  131      -16.640189
  132      -16.640154
  133      -16.639402
  134      -16.639363
  135      -16.638582
  136      -16.638581
  137      -16.638576
  138      -16.638576
  139      -16.636844
  140      -16.636119
  141      -16.636081
  142      -16.634616
  143      -16.634577
  144      -16.633879
  145      -16.628169
  146      -16.628167
  147      -16.627725
  148      -16.627725
  149      -16.627509
  150      -16.627508
  151      -16.627474
  152      -16.627474
  153      -16.626239
  154      -16.626237
  155      -16.626219
  156      -16.626218
  157      -16.625430
  158      -16.625428
  159      -16.622372
  160      -16.622369
  161      -16.620679
  162      -16.620536
  163       -8.880708
  164       -8.880705
  165       -8.273564
  166       -8.273561
  167       -8.230054
  168       -8.230052
  169       -8.230045
  170       -8.230042
  171       -8.149705
  172       -8.149703
  173       -8.149693
  174       -8.149690
  175       -8.113170
  176       -8.113167
  177       -8.076766
  178       -8.076765
  179       -7.967631
  180       -7.963687
  181       -7.963678
  182       -7.952133
  183       -7.952125
  184       -7.944675
  185       -7.827501
  186       -7.821573
  187       -7.678940
  188       -7.678938
  189       -7.678935
  190       -7.678932
  191       -7.254879
  192       -7.213698
  193       -7.213683
  194       -7.141762
  195       -7.141743
  196       -7.112146
  197       -6.765983
  198       -6.765983
  199       -6.765977
  200       -6.765977
  201       -6.697957
  202       -6.697955
  203       -6.677195
  204       -6.677193
  205       -6.677191
  206       -6.677189
  207       -6.636286
  208       -6.636285
  209       -6.636284
  210       -6.636283
  211       -6.616028
  212       -6.616026
  213       -6.333503
  214       -6.333503
  215       -6.261633
  216       -6.261605
  217       -6.149262
  218       -6.149259
  219       -6.149258
  220       -6.149255
  221       -6.057463
  222       -6.057432
  223       -5.750431
  224       -5.750430
  225       -5.738735
  226       -5.738734
  227       -5.738693
  228       -5.738690
  229       -5.704905
  230       -5.704903
  231       -5.704864
  232       -5.704862
  233       -5.683185
  234       -5.683184
  235       -5.178195
  236       -5.178193
  237       -5.147682
  238       -5.147681
  239       -5.104639
  240       -5.104591
  241       -5.101493
  242       -5.069752
  243       -5.069741
  244       -5.069479
  245       -5.069478
  246       -5.053995
  247       -5.037985
  248       -5.033331
  249       -5.013130
  250       -5.013095
  251       -5.003926
  252       -4.996372
  253       -4.996306
  254       -4.953958
  255       -4.953956
  256       -4.944125
  257       -4.944124
  258       -4.944086
  259       -4.944084
  260       -4.928998
  261       -4.928998
  262       -4.928959
  263       -4.928957
  264       -4.923588
  265       -4.923586
  266       -4.870854
  267       -4.870283
  268       -4.870243
  269       -4.869300
  270       -4.869261
  271       -4.868479
  272       -4.845774
  273       -4.845753
  274       -4.840846
  275       -4.840825
  276       -4.823576
  277       -4.823576
  278       -4.823573
  279       -4.823573
  280       -4.734249
  281       -4.636170
  282       -4.622040
  283       -4.546149
  284       -4.546148
  285       -4.526523
  286       -4.526523
  287       -4.526515
  288       -4.526514
  289       -4.492410
  290       -4.492409
  291       -4.492402
  292       -4.492400
  293       -4.477725
  294       -4.477724
  295       -4.443024
  296       -4.443021
  297       -4.443019
  298       -4.443016
  299       -4.275486
  300       -4.275484
  301       -4.270732
  302       -4.270731
  303       -4.270730
  304       -4.270729
  305       -4.265514
  306       -4.265511
  307       -4.265501
  308       -4.265499
  309       -4.242330
  310       -4.242327
  311       -4.242318
  312       -4.242316
  313       -4.229173
  314       -4.229170
  315       -4.150443
  316       -4.126346
  317       -4.126316
  318       -4.083915
  319       -4.083883
  320       -4.065706
  321       -4.005842
  322       -4.005839
  323       -3.857921
  324       -3.857917
  325       -2.537135
  326       -2.537132
  327       -2.537132
  328       -2.537130
  329       -2.493581
  330       -2.493580
  331       -2.488397
  332       -2.488396
  333       -2.488393
  334       -2.488392
  335       -2.474674
  336       -2.474673
  337       -2.474668
  338       -2.474667
  339       -2.465963
  340       -2.465962
  341       -2.456838
  342       -2.456167
  343       -2.456159
  344       -2.453732
  345       -2.453727
  346       -2.451400
  347       -2.333893
  348       -2.333792
  349       -2.323604
  350       -2.323603
  351       -2.312675
  352       -2.312570
  353       -2.303444
  354       -2.303443
  355       -2.303413
  356       -2.303412
  357       -2.262451
  358       -2.262451
  359       -2.262430
  360       -2.262429
  361       -2.240954
  362       -2.240953
  363       -2.229420
  364       -2.229418
  365       -2.229359
  366       -2.229358
  367       -2.222066
  368       -2.200749
  369       -2.193396
  370       -2.193378
  371       -2.187952
  372       -2.185530
  373       -2.185529
  374       -2.181547
  375       -2.181508
  376       -2.178611
  377       -2.176132
  378       -2.133242
  379       -2.133240
  380       -2.133171
  381       -2.133169
  382       -2.019165
  383       -2.019152
  384       -2.015256
  385       -2.015254
  386       -1.928825
  387       -1.905997
  388       -1.905972
  389       -1.892817
  390       -1.892814
  391       -1.866841
  392       -1.866799
  393       -1.848802
  394       -1.838461
  395       -1.838458
  396       -1.838338
  397       -1.838336
  398       -1.837557
  399       -1.837555
  400       -1.833250
  401       -1.833247
  402       -1.833141
  403       -1.833139
  404       -1.828503
  405       -1.828501
  406       -1.820749
  407       -1.731228
  408       -1.707906
  409       -1.707709
  410       -1.670666
  411       -1.670664
  412       -1.660087
  413       -1.660086
  414       -1.660049
  415       -1.660048
  416       -1.653604
  417       -1.653418
  418       -1.637018
  419       -1.637017
  420       -1.637012
  421       -1.637011
  422       -1.626538
  423       -1.626538
  424       -1.621813
  425       -1.552830
  426       -1.552829
  427       -1.499835
  428       -1.499834
  429       -1.495359
  430       -1.495359
  431       -1.495343
  432       -1.495341
  433       -1.493375
  434       -1.493374
  435       -1.492338
  436       -1.492337
  437       -1.492312
  438       -1.492311
  439       -1.483267
  440       -1.483265
  441       -1.419047
  442       -1.419046
  443       -1.392623
  444       -1.383758
  445       -1.383692
  446       -1.380569
  447       -1.380566
  448       -1.380477
  449       -1.380474
  450       -1.363909
  451       -1.363823
  452       -1.352636
  453       -1.342716
  454       -1.342714
  455       -1.342648
  456       -1.342646
  457       -1.327488
  458       -1.327460
  459       -1.310186
  460       -1.310185
  461       -1.258591
  462       -1.258590
  463       -1.258555
  464       -1.258552
  465       -1.257379
  466       -1.239395
  467       -1.239324
  468       -1.206350
  469       -1.206293
  470       -1.190699
  471       -1.142001
  472       -1.142001
  473       -1.118765
  474       -1.118764
  475       -1.037527
  476       -1.037524
  477       -1.027039
  478       -1.026994
  479       -0.984760
  480       -0.982970
  481       -0.981688
  482       -0.981485
  483       -0.978932
  484       -0.978714
  485       -0.978479
  486       -0.978345
  487       -0.972692
  488       -0.950929
  489       -0.950927
  490       -0.940622
  491       -0.940620
  492       -0.940492
  493       -0.940490
  494       -0.927550
  495       -0.927549
  496       -0.927545
  497       -0.927544
  498       -0.922991
  499       -0.922991
  500       -0.879951
  501       -0.879950
  502       -0.876404
  503       -0.876402
  504       -0.876277
  505       -0.876275
  506       -0.856007
  507       -0.856006
  508       -0.855976
  509       -0.855975
  510       -0.840280
  511       -0.840279
  512       -0.730630
  513       -0.730434
  514       -0.699758
  515       -0.699756
  516       -0.673785
  517       -0.673784
  518       -0.673732
  519       -0.673731
  520       -0.660397
  521       -0.660241
  522       -0.633547
  523       -0.633547
  524       -0.633529
  525       -0.633529
  526       -0.632090
  527       -0.632089
  528       -0.631997
  529       -0.631995
  530       -0.615569
  531       -0.615568
  532       -0.458001
  533       -0.457886
  534       -0.451702
  535       -0.449593
  536       -0.449476
  537       -0.435945
  538       -0.383876
  539       -0.383876
  540       -0.383863
  541       -0.383862
  542       -0.323363
  543       -0.323360
  544       -0.291862
  545       -0.279133
  546       -0.278949
  547       -0.272119
  548       -0.269207
  549       -0.268988
  550       -0.267592
  551       -0.267592
  552       -0.267577
  553       -0.267576
  554       -0.229041
  555       -0.227312
  556       -0.163240
  557       -0.163239
  558       -0.148720
  559       -0.148718
  560       -0.148606
  561       -0.148605
  562       -0.140925
  563       -0.131729
  564       -0.131727
  565       -0.131637