 243 243   0   0
  0.1311381E+02  0.1499190E-08  0.1499190E-08  0.1637160E-08  0.5000000E-15
  1.000000000000000E-004
  CAR 
 (Si O2)81  (P1) ~ Ciellie_MCM41 (MD     
     12.81299024    -20.33098123  301      1.11593031      1.00000000
    -20.331  0.0000E+00  0.0000E+00
    -20.221  0.0000E+00  0.0000E+00
    -20.110  0.0000E+00  0.0000E+00
    -20.000  0.0000E+00  0.0000E+00
    -19.889  0.0000E+00  0.0000E+00
    -19.779  0.0000E+00  0.0000E+00
    -19.668  0.0000E+00  0.0000E+00
    -19.558  0.0000E+00  0.0000E+00
    -19.447  0.0000E+00  0.0000E+00
    -19.337  0.0000E+00  0.0000E+00
    -19.226  0.0000E+00  0.0000E+00
    -19.116  0.7851E-17  0.8674E-18
    -19.005  0.6046E-07  0.6679E-08
    -18.895  0.2642E-01  0.2919E-02
    -18.784  0.6399E+01  0.7099E+00
    -18.674  0.3171E+02  0.4213E+01
    -18.563  0.5354E+02  0.1013E+02
    -18.453  0.7971E+02  0.1893E+02
    -18.342  0.1562E+03  0.3619E+02
    -18.232  0.1603E+03  0.5390E+02
    -18.121  0.3073E+02  0.5729E+02
    -18.011  0.4199E+02  0.6193E+02
    -17.900  0.1154E+03  0.7468E+02
    -17.790  0.1798E+03  0.9455E+02
    -17.679  0.6479E+02  0.1017E+03
    -17.569  0.3161E+02  0.1052E+03
    -17.459  0.2542E+02  0.1080E+03
    -17.348  0.6537E+02  0.1152E+03
    -17.238  0.1989E+03  0.1372E+03
    -17.127  0.9241E+02  0.1474E+03
    -17.017  0.5127E+02  0.1531E+03
    -16.906  0.3593E+02  0.1570E+03
    -16.796  0.2515E+02  0.1598E+03
    -16.685  0.2042E+03  0.1824E+03
    -16.575  0.1231E+04  0.3184E+03
    -16.464  0.5107E+02  0.3240E+03
    -16.354  0.1446E-02  0.3240E+03
    -16.243  0.8635E-11  0.3240E+03
    -16.133  0.0000E+00  0.3240E+03
    -16.022  0.0000E+00  0.3240E+03
    -15.912  0.0000E+00  0.3240E+03
    -15.801  0.0000E+00  0.3240E+03
    -15.691  0.0000E+00  0.3240E+03
    -15.580  0.0000E+00  0.3240E+03
    -15.470  0.0000E+00  0.3240E+03
    -15.359  0.0000E+00  0.3240E+03
    -15.249  0.0000E+00  0.3240E+03
    -15.138  0.0000E+00  0.3240E+03
    -15.028  0.0000E+00  0.3240E+03
    -14.917  0.0000E+00  0.3240E+03
    -14.807  0.0000E+00  0.3240E+03
    -14.697  0.0000E+00  0.3240E+03
    -14.586  0.0000E+00  0.3240E+03
    -14.476  0.0000E+00  0.3240E+03
    -14.365  0.0000E+00  0.3240E+03
    -14.255  0.0000E+00  0.3240E+03
    -14.144  0.0000E+00  0.3240E+03
    -14.034  0.0000E+00  0.3240E+03
    -13.923  0.0000E+00  0.3240E+03
    -13.813  0.0000E+00  0.3240E+03
    -13.702  0.0000E+00  0.3240E+03
    -13.592  0.0000E+00  0.3240E+03
    -13.481  0.0000E+00  0.3240E+03
    -13.371  0.0000E+00  0.3240E+03
    -13.260  0.0000E+00  0.3240E+03
    -13.150  0.0000E+00  0.3240E+03
    -13.039  0.0000E+00  0.3240E+03
    -12.929  0.0000E+00  0.3240E+03
    -12.818  0.0000E+00  0.3240E+03
    -12.708  0.0000E+00  0.3240E+03
    -12.597  0.0000E+00  0.3240E+03
    -12.487  0.0000E+00  0.3240E+03
    -12.376  0.0000E+00  0.3240E+03
    -12.266  0.0000E+00  0.3240E+03
    -12.155  0.0000E+00  0.3240E+03
    -12.045  0.0000E+00  0.3240E+03
    -11.935  0.0000E+00  0.3240E+03
    -11.824  0.0000E+00  0.3240E+03
    -11.714  0.0000E+00  0.3240E+03
    -11.603  0.0000E+00  0.3240E+03
    -11.493  0.0000E+00  0.3240E+03
    -11.382  0.0000E+00  0.3240E+03
    -11.272  0.0000E+00  0.3240E+03
    -11.161  0.0000E+00  0.3240E+03
    -11.051  0.0000E+00  0.3240E+03
    -10.940  0.0000E+00  0.3240E+03
    -10.830  0.0000E+00  0.3240E+03
    -10.719  0.0000E+00  0.3240E+03
    -10.609  0.0000E+00  0.3240E+03
    -10.498  0.0000E+00  0.3240E+03
    -10.388  0.0000E+00  0.3240E+03
    -10.277  0.0000E+00  0.3240E+03
    -10.167  0.0000E+00  0.3240E+03
    -10.056  0.0000E+00  0.3240E+03
     -9.946  0.0000E+00  0.3240E+03
     -9.835  0.0000E+00  0.3240E+03
     -9.725  0.0000E+00  0.3240E+03
     -9.614  0.0000E+00  0.3240E+03
     -9.504  0.0000E+00  0.3240E+03
     -9.393  0.0000E+00  0.3240E+03
     -9.283  0.1583E-12  0.3240E+03
     -9.173  0.9606E-05  0.3240E+03
     -9.062  0.1181E+00  0.3240E+03
     -8.952  0.3197E+01  0.3244E+03
     -8.841  0.7787E+01  0.3252E+03
     -8.731  0.1118E+02  0.3265E+03
     -8.620  0.1442E+02  0.3281E+03
     -8.510  0.1777E+02  0.3300E+03
     -8.399  0.2155E+02  0.3324E+03
     -8.289  0.2648E+02  0.3353E+03
     -8.178  0.3387E+02  0.3391E+03
     -8.068  0.5527E+02  0.3452E+03
     -7.957  0.1530E+03  0.3621E+03
     -7.847  0.8478E+02  0.3714E+03
     -7.736  0.3574E+02  0.3754E+03
     -7.626  0.1730E+02  0.3773E+03
     -7.515  0.1171E+02  0.3786E+03
     -7.405  0.1124E+02  0.3798E+03
     -7.294  0.1142E+02  0.3811E+03
     -7.184  0.1737E+02  0.3830E+03
     -7.073  0.2308E+02  0.3856E+03
     -6.963  0.3488E+02  0.3894E+03
     -6.852  0.7708E+02  0.3979E+03
     -6.742  0.1114E+03  0.4102E+03
     -6.631  0.7169E+02  0.4182E+03
     -6.521  0.4258E+02  0.4229E+03
     -6.411  0.2811E+02  0.4260E+03
     -6.300  0.1977E+02  0.4282E+03
     -6.190  0.1431E+02  0.4297E+03
     -6.079  0.3366E+02  0.4335E+03
     -5.969  0.5710E+02  0.4398E+03
     -5.858  0.6842E+02  0.4473E+03
     -5.748  0.5909E+02  0.4539E+03
     -5.637  0.5335E+02  0.4598E+03
     -5.527  0.4963E+02  0.4652E+03
     -5.416  0.4634E+02  0.4704E+03
     -5.306  0.4224E+02  0.4750E+03
     -5.195  0.3648E+02  0.4791E+03
     -5.085  0.5749E+02  0.4854E+03
     -4.974  0.1889E+03  0.5063E+03
     -4.864  0.2273E+03  0.5314E+03
     -4.753  0.1613E+03  0.5492E+03
     -4.643  0.1368E+03  0.5643E+03
     -4.532  0.1368E+03  0.5794E+03
     -4.422  0.1225E+03  0.5930E+03
     -4.311  0.9616E+02  0.6036E+03
     -4.201  0.1546E+03  0.6207E+03
     -4.090  0.1127E+03  0.6331E+03
     -3.980  0.8519E+02  0.6425E+03
     -3.869  0.4565E+02  0.6476E+03
     -3.759  0.3760E+01  0.6480E+03
     -3.649  0.2887E-02  0.6480E+03
     -3.538  0.8346E-09  0.6480E+03
     -3.428  0.0000E+00  0.6480E+03
     -3.317  0.0000E+00  0.6480E+03
     -3.207  0.0000E+00  0.6480E+03
     -3.096  0.0000E+00  0.6480E+03
     -2.986  0.0000E+00  0.6480E+03
     -2.875  0.0000E+00  0.6480E+03
     -2.765  0.1347E-07  0.6480E+03
     -2.654  0.3379E-01  0.6480E+03
     -2.544  0.3351E+02  0.6517E+03
     -2.433  0.2796E+03  0.6826E+03
     -2.323  0.2486E+03  0.7101E+03
     -2.212  0.2184E+03  0.7342E+03
     -2.102  0.1666E+03  0.7526E+03
     -1.991  0.1297E+03  0.7669E+03
     -1.881  0.1938E+03  0.7883E+03
     -1.770  0.1933E+03  0.8097E+03
     -1.660  0.1552E+03  0.8268E+03
     -1.549  0.2172E+03  0.8508E+03
     -1.439  0.2968E+03  0.8836E+03
     -1.328  0.2797E+03  0.9145E+03
     -1.218  0.1186E+03  0.9276E+03
     -1.107  0.1208E+03  0.9410E+03
     -0.997  0.2352E+03  0.9670E+03
     -0.887  0.3213E+03  0.1002E+04
     -0.776  0.1661E+03  0.1021E+04
     -0.666  0.1411E+03  0.1036E+04
     -0.555  0.1837E+03  0.1057E+04
     -0.445  0.1738E+03  0.1076E+04
     -0.334  0.1178E+03  0.1089E+04
     -0.224  0.1547E+03  0.1106E+04
     -0.113  0.2050E+03  0.1129E+04
     -0.003  0.1797E+03  0.1149E+04
      0.108  0.1824E+03  0.1169E+04
      0.218  0.1634E+03  0.1187E+04
      0.329  0.1785E+03  0.1206E+04
      0.439  0.2094E+03  0.1230E+04
      0.550  0.1716E+03  0.1249E+04
      0.660  0.1460E+03  0.1265E+04
      0.771  0.2300E+03  0.1290E+04
      0.881  0.5339E+02  0.1296E+04
      0.992  0.2087E+00  0.1296E+04
      1.102  0.6467E-06  0.1296E+04
      1.213  0.1413E-15  0.1296E+04
      1.323  0.0000E+00  0.1296E+04
      1.434  0.0000E+00  0.1296E+04
      1.544  0.0000E+00  0.1296E+04
      1.655  0.0000E+00  0.1296E+04
      1.765  0.0000E+00  0.1296E+04
      1.875  0.0000E+00  0.1296E+04
      1.986  0.0000E+00  0.1296E+04
      2.096  0.0000E+00  0.1296E+04
      2.207  0.0000E+00  0.1296E+04
      2.317  0.0000E+00  0.1296E+04
      2.428  0.0000E+00  0.1296E+04
      2.538  0.0000E+00  0.1296E+04
      2.649  0.0000E+00  0.1296E+04
      2.759  0.0000E+00  0.1296E+04
      2.870  0.0000E+00  0.1296E+04
      2.980  0.0000E+00  0.1296E+04
      3.091  0.0000E+00  0.1296E+04
      3.201  0.0000E+00  0.1296E+04
      3.312  0.0000E+00  0.1296E+04
      3.422  0.0000E+00  0.1296E+04
      3.533  0.0000E+00  0.1296E+04
      3.643  0.0000E+00  0.1296E+04
      3.754  0.0000E+00  0.1296E+04
      3.864  0.0000E+00  0.1296E+04
      3.975  0.0000E+00  0.1296E+04
      4.085  0.0000E+00  0.1296E+04
      4.196  0.0000E+00  0.1296E+04
      4.306  0.0000E+00  0.1296E+04
      4.417  0.0000E+00  0.1296E+04
      4.527  0.0000E+00  0.1296E+04
      4.637  0.0000E+00  0.1296E+04
      4.748  0.0000E+00  0.1296E+04
      4.858  0.0000E+00  0.1296E+04
      4.969  0.0000E+00  0.1296E+04
      5.079  0.0000E+00  0.1296E+04
      5.190  0.0000E+00  0.1296E+04
      5.300  0.0000E+00  0.1296E+04
      5.411  0.0000E+00  0.1296E+04
      5.521  0.0000E+00  0.1296E+04
      5.632  0.0000E+00  0.1296E+04
      5.742  0.0000E+00  0.1296E+04
      5.853  0.0000E+00  0.1296E+04
      5.963  0.0000E+00  0.1296E+04
      6.074  0.0000E+00  0.1296E+04
      6.184  0.0000E+00  0.1296E+04
      6.295  0.0000E+00  0.1296E+04
      6.405  0.0000E+00  0.1296E+04
      6.516  0.4233E-11  0.1296E+04
      6.626  0.3947E-04  0.1296E+04
      6.737  0.1266E+00  0.1296E+04
      6.847  0.1793E+01  0.1296E+04
      6.958  0.3621E+01  0.1297E+04
      7.068  0.4872E+01  0.1297E+04
      7.179  0.5916E+01  0.1298E+04
      7.289  0.7342E+01  0.1299E+04
      7.399  0.7993E+01  0.1299E+04
      7.510  0.9498E+01  0.1301E+04
      7.620  0.1053E+02  0.1302E+04
      7.731  0.1159E+02  0.1303E+04
      7.841  0.1241E+02  0.1304E+04
      7.952  0.1439E+02  0.1306E+04
      8.062  0.1506E+02  0.1308E+04
      8.173  0.1679E+02  0.1309E+04
      8.283  0.1798E+02  0.1311E+04
      8.394  0.2056E+02  0.1314E+04
      8.504  0.2041E+02  0.1316E+04
      8.615  0.2538E+02  0.1319E+04
      8.725  0.2487E+02  0.1322E+04
      8.836  0.3264E+02  0.1325E+04
      8.946  0.3272E+02  0.1329E+04
      9.057  0.3349E+02  0.1332E+04
      9.167  0.3286E+02  0.1336E+04
      9.278  0.3190E+02  0.1340E+04
      9.388  0.3078E+02  0.1343E+04
      9.499  0.3190E+02  0.1347E+04
      9.609  0.3481E+02  0.1350E+04
      9.720  0.4493E+02  0.1355E+04
      9.830  0.7547E+02  0.1364E+04
      9.941  0.1219E+03  0.1377E+04
     10.051  0.1651E+03  0.1395E+04
     10.161  0.1390E+03  0.1411E+04
     10.272  0.1210E+03  0.1424E+04
     10.382  0.1308E+03  0.1439E+04
     10.493  0.1723E+03  0.1458E+04
     10.603  0.2516E+03  0.1485E+04
     10.714  0.2077E+03  0.1508E+04
     10.824  0.1579E+03  0.1526E+04
     10.935  0.1104E+03  0.1538E+04
     11.045  0.1068E+03  0.1550E+04
     11.156  0.9911E+02  0.1561E+04
     11.266  0.5759E+02  0.1567E+04
     11.377  0.8057E+01  0.1568E+04
     11.487  0.2680E-01  0.1568E+04
     11.598  0.6830E-07  0.1568E+04
     11.708  0.0000E+00  0.1568E+04
     11.819  0.0000E+00  0.1568E+04
     11.929  0.0000E+00  0.1568E+04
     12.040  0.0000E+00  0.1568E+04
     12.150  0.0000E+00  0.1568E+04
     12.261  0.0000E+00  0.1568E+04
     12.371  0.0000E+00  0.1568E+04
     12.482  0.0000E+00  0.1568E+04
     12.592  0.0000E+00  0.1568E+04
     12.703  0.0000E+00  0.1568E+04
     12.813  0.0000E+00  0.1568E+04
