  243  243    1    1
  0.1311381E+02  0.1499190E-08  0.1499190E-08  0.1637160E-08  0.5000000E-15
  1.000000000000000E-004
  CAR 
 (Si O2)81  (P1) ~ Ciellie_MCM41 (MD     
   1296     50    784
 
  0.0000000E+00  0.0000000E+00  0.0000000E+00  0.1953125E-02
    1      -18.824437
    2      -18.615611
    3      -18.615609
    4      -18.536825
    5      -18.536818
    6      -18.536768
    7      -18.536649
    8      -18.536598
    9      -18.536591
   10      -18.407091
   11      -18.407090
   12      -18.407046
   13      -18.407044
   14      -18.407011
   15      -18.407009
   16      -18.406920
   17      -18.406918
   18      -18.406885
   19      -18.406884
   20      -18.406837
   21      -18.406837
   22      -18.279486
   23      -18.279484
   24      -18.279483
   25      -18.279481
   26      -18.116346
   27      -18.116344
   28      -18.116312
   29      -18.116310
   30      -18.045030
   31      -18.045029
   32      -17.949322
   33      -17.949322
   34      -17.949270
   35      -17.949270
   36      -17.949199
   37      -17.949197
   38      -17.949188
   39      -17.949186
   40      -17.949118
   41      -17.949117
   42      -17.949064
   43      -17.949063
   44      -17.799745
   45      -17.799745
   46      -17.799742
   47      -17.799742
   48      -17.672604
   49      -17.672600
   50      -17.672587
   51      -17.672330
   52      -17.672326
   53      -17.672315
   54      -17.457536
   55      -17.457535
   56      -17.457533
   57      -17.457532
   58      -17.313544
   59      -17.313540
   60      -17.288643
   61      -17.288598
   62      -17.275986
   63      -17.275874
   64      -17.275850
   65      -17.275758
   66      -17.275739
   67      -17.275630
   68      -17.136329
   69      -17.136328
   70      -17.136328
   71      -17.136327
   72      -17.136271
   73      -17.136269
   74      -17.136266
   75      -17.136264
   76      -17.136209
   77      -17.136209
   78      -17.136208
   79      -17.136207
   80      -16.692155
   81      -16.692152
   82      -16.666308
   83      -16.666305
   84      -16.666305
   85      -16.666302
   86      -16.658510
   87      -16.654967
   88      -16.654967
   89      -16.654952
   90      -16.654952
   91      -16.653506
   92      -16.653504
   93      -16.653458
   94      -16.653457
   95      -16.653378
   96      -16.653375
   97      -16.653317
   98      -16.653314
   99      -16.653233
  100      -16.653232
  101      -16.653171
  102      -16.653169
  103      -16.651894
  104      -16.651889
  105      -16.651887
  106      -16.651827
  107      -16.651823
  108      -16.651820
  109      -16.647257
  110      -16.647253
  111      -16.646832
  112      -16.646830
  113      -16.645729
  114      -16.645727
  115      -16.645704
  116      -16.645702
  117      -16.645690
  118      -16.645688
  119      -16.645655
  120      -16.645652
  121      -16.645632
  122      -16.645628
  123      -16.645580
  124      -16.645576
  125      -16.644827
  126      -16.644822
  127      -16.644786
  128      -16.644692
  129      -16.644648
  130      -16.644637
  131      -16.639531
  132      -16.639529
  133      -16.639488
  134      -16.639485
  135      -16.638866
  136      -16.638866
  137      -16.638862
  138      -16.638862
  139      -16.635626
  140      -16.635513
  141      -16.635485
  142      -16.635396
  143      -16.635371
  144      -16.635250
  145      -16.627607
  146      -16.627606
  147      -16.626806
  148      -16.626806
  149      -16.626713
  150      -16.626712
  151      -16.626697
  152      -16.626695
  153      -16.626594
  154      -16.626592
  155      -16.626580
  156      -16.626580
  157      -16.626470
  158      -16.626470
  159      -16.621860
  160      -16.621857
  161      -16.620444
  162      -16.620390
  163       -8.885779
  164       -8.885776
  165       -8.192270
  166       -8.192269
  167       -8.192240
  168       -8.192239
  169       -8.192203
  170       -8.192200
  171       -8.192177
  172       -8.192174
  173       -8.192137
  174       -8.192137
  175       -8.192108
  176       -8.192107
  177       -8.077987
  178       -8.077986
  179       -7.956821
  180       -7.956819
  181       -7.956796
  182       -7.956747
  183       -7.956727
  184       -7.956716
  185       -7.826443
  186       -7.826414
  187       -7.673557
  188       -7.673556
  189       -7.673556
  190       -7.673554
  191       -7.181716
  192       -7.181714
  193       -7.181703
  194       -7.181701
  195       -7.181696
  196       -7.181691
  197       -6.765238
  198       -6.765237
  199       -6.765235
  200       -6.765235
  201       -6.656567
  202       -6.656567
  203       -6.656561
  204       -6.656559
  205       -6.656521
  206       -6.656520
  207       -6.656478
  208       -6.656478
  209       -6.656437
  210       -6.656436
  211       -6.656436
  212       -6.656435
  213       -6.330848
  214       -6.330847
  215       -6.159303
  216       -6.159300
  217       -6.159269
  218       -6.159266
  219       -6.156275
  220       -6.156273
  221       -6.156272
  222       -6.156270
  223       -5.718675
  224       -5.718674
  225       -5.718666
  226       -5.718665
  227       -5.718624
  228       -5.718623
  229       -5.718623
  230       -5.718621
  231       -5.718590
  232       -5.718589
  233       -5.718583
  234       -5.718582
  235       -5.149676
  236       -5.149674
  237       -5.145487
  238       -5.145485
  239       -5.102139
  240       -5.102139
  241       -5.055113
  242       -5.053411
  243       -5.053411
  244       -5.053407
  245       -5.053390
  246       -5.053389
  247       -5.053387
  248       -5.035671
  249       -5.035643
  250       -5.035601
  251       -5.035573
  252       -5.035563
  253       -5.035493
  254       -4.937717
  255       -4.937716
  256       -4.937687
  257       -4.937686
  258       -4.937683
  259       -4.937682
  260       -4.937639
  261       -4.937638
  262       -4.937637
  263       -4.937635
  264       -4.937598
  265       -4.937596
  266       -4.869821
  267       -4.869797
  268       -4.869786
  269       -4.869752
  270       -4.869749
  271       -4.869735
  272       -4.842328
  273       -4.842326
  274       -4.842304
  275       -4.842301
  276       -4.822921
  277       -4.822920
  278       -4.822920
  279       -4.822920
  280       -4.725677
  281       -4.633072
  282       -4.633065
  283       -4.509565
  284       -4.509565
  285       -4.509556
  286       -4.509555
  287       -4.509520
  288       -4.509519
  289       -4.509518
  290       -4.509517
  291       -4.509479
  292       -4.509479
  293       -4.509467
  294       -4.509467
  295       -4.443734
  296       -4.443731
  297       -4.443729
  298       -4.443727
  299       -4.269720
  300       -4.269719
  301       -4.269719
  302       -4.269718
  303       -4.253431
  304       -4.253430
  305       -4.253396
  306       -4.253396
  307       -4.253390
  308       -4.253388
  309       -4.253385
  310       -4.253384
  311       -4.253380
  312       -4.253379
  313       -4.253340
  314       -4.253339
  315       -4.106081
  316       -4.106061
  317       -4.106051
  318       -4.106038
  319       -4.106029
  320       -4.106019
  321       -4.003766
  322       -4.003763
  323       -3.855225
  324       -3.855223
  325       -2.538063
  326       -2.538061
  327       -2.538061
  328       -2.538059
  329       -2.481723
  330       -2.481722
  331       -2.481706
  332       -2.481706
  333       -2.481645
  334       -2.481645
  335       -2.481640
  336       -2.481640
  337       -2.481580
  338       -2.481580
  339       -2.481564
  340       -2.481563
  341       -2.456131
  342       -2.456114
  343       -2.456114
  344       -2.456038
  345       -2.456033
  346       -2.456021
  347       -2.322543
  348       -2.322542
  349       -2.322422
  350       -2.322422
  351       -2.283479
  352       -2.283479
  353       -2.283465
  354       -2.283465
  355       -2.283421
  356       -2.283420
  357       -2.283363
  358       -2.283363
  359       -2.283323
  360       -2.283323
  361       -2.283308
  362       -2.283308
  363       -2.223851
  364       -2.216313
  365       -2.216313
  366       -2.216311
  367       -2.216311
  368       -2.185520
  369       -2.185499
  370       -2.185486
  371       -2.185409
  372       -2.185383
  373       -2.185362
  374       -2.180927
  375       -2.180927
  376       -2.179853
  377       -2.179840
  378       -2.147991
  379       -2.147991
  380       -2.147989
  381       -2.147989
  382       -2.020175
  383       -2.020173
  384       -2.014376
  385       -2.014375
  386       -1.892958
  387       -1.892955
  388       -1.889353
  389       -1.889287
  390       -1.889262
  391       -1.889261
  392       -1.889242
  393       -1.889173
  394       -1.832811
  395       -1.832809
  396       -1.832780
  397       -1.832778
  398       -1.832757
  399       -1.832755
  400       -1.832722
  401       -1.832721
  402       -1.832678
  403       -1.832676
  404       -1.832618
  405       -1.832616
  406       -1.829794
  407       -1.680076
  408       -1.680047
  409       -1.679903
  410       -1.679877
  411       -1.679833
  412       -1.679777
  413       -1.648129
  414       -1.648128
  415       -1.648104
  416       -1.648104
  417       -1.648082
  418       -1.648081
  419       -1.648077
  420       -1.648076
  421       -1.648048
  422       -1.648047
  423       -1.648033
  424       -1.648033
  425       -1.555950
  426       -1.555949
  427       -1.497230
  428       -1.497229
  429       -1.497171
  430       -1.497170
  431       -1.497168
  432       -1.497167
  433       -1.497159
  434       -1.497158
  435       -1.497158
  436       -1.497157
  437       -1.497105
  438       -1.497105
  439       -1.484667
  440       -1.484667
  441       -1.406573
  442       -1.406572
  443       -1.373013
  444       -1.373010
  445       -1.373004
  446       -1.373001
  447       -1.371081
  448       -1.371045
  449       -1.370968
  450       -1.370962
  451       -1.370936
  452       -1.370883
  453       -1.334389
  454       -1.334389
  455       -1.334389
  456       -1.334388
  457       -1.310546
  458       -1.310545
  459       -1.310510
  460       -1.310510
  461       -1.275161
  462       -1.275161
  463       -1.275160
  464       -1.275160
  465       -1.223633
  466       -1.223619
  467       -1.223587
  468       -1.223570
  469       -1.223517
  470       -1.223507
  471       -1.148842
  472       -1.148842
  473       -1.120752
  474       -1.120752
  475       -1.044594
  476       -1.044589
  477       -1.041190
  478       -1.041187
  479       -0.982327
  480       -0.982320
  481       -0.982317
  482       -0.982317
  483       -0.982099
  484       -0.982093
  485       -0.981502
  486       -0.973786
  487       -0.973397
  488       -0.929852
  489       -0.929851
  490       -0.929827
  491       -0.929825
  492       -0.929773
  493       -0.929771
  494       -0.929738
  495       -0.929737
  496       -0.929716
  497       -0.929714
  498       -0.929642
  499       -0.929641
  500       -0.866973
  501       -0.866972
  502       -0.866946
  503       -0.866945
  504       -0.866912
  505       -0.866912
  506       -0.866878
  507       -0.866877
  508       -0.866859
  509       -0.866859
  510       -0.866837
  511       -0.866836
  512       -0.695503
  513       -0.695497
  514       -0.695300
  515       -0.695294
  516       -0.656489
  517       -0.656488
  518       -0.656429
  519       -0.656428
  520       -0.656416
  521       -0.656415
  522       -0.656339
  523       -0.656339
  524       -0.656339
  525       -0.656338
  526       -0.656283
  527       -0.656281
  528       -0.631111
  529       -0.631111
  530       -0.631107
  531       -0.631107
  532       -0.445147
  533       -0.445109
  534       -0.445039
  535       -0.444992
  536       -0.444984
  537       -0.444869
  538       -0.377968
  539       -0.377967
  540       -0.377965
  541       -0.377964
  542       -0.326656
  543       -0.326653
  544       -0.282537
  545       -0.282519
  546       -0.282328
  547       -0.282310
  548       -0.282301
  549       -0.282278
  550       -0.275791
  551       -0.275791
  552       -0.275782
  553       -0.275782
  554       -0.225899
  555       -0.225668
  556       -0.138896
  557       -0.138896
  558       -0.138882
  559       -0.138881
  560       -0.138875
  561       -0.138875
  562       -0.138853
  563       -0.138853
  564       -0.138783
  565       -0.138782
  566       -0.138762
  567       -0.138760
  568       -0.069764
  569       -0.069732
  570       -0.069712
  571       -0.069646
  572       -0.069641
  573       -0.069603
  574        0.078622
  575        0.078622
  576        0.078626
  577        0.078626
  578        0.127905
  579        0.127907
  580        0.127917
  581        0.127919
  582        0.128045
  583        0.128047
  584        0.128055
  585        0.128058
  586        0.128090
  587        0.128093
  588        0.128112
  589        0.128115
  590        0.143673
  591        0.143673
  592        0.143679
  593        0.143679
  594        0.249880
  595        0.249880
  596        0.249888
  597        0.249889
  598        0.249910
  599        0.249910
  600        0.249915
  601        0.249915
  602        0.249939
  603        0.249940
  604        0.249947
  605        0.249948
  606        0.311214
  607        0.311219
  608        0.311420
  609        0.311424
  610        0.318726
  611        0.318741
  612        0.415520
  613        0.415522
  614        0.415528
  615        0.415529
  616        0.436928
  617        0.436931
  618        0.460113
  619        0.460113
  620        0.460136
  621        0.460137
  622        0.460140
  623        0.460142
  624        0.612903
  625        0.662091
  626        0.662092
  627        0.662122
  628        0.662123
  629        0.662132
  630        0.662132
  631        0.662162
  632        0.662163
  633        0.662196
  634        0.662198
  635        0.662252
  636        0.662254
  637        0.728091
  638        0.728096
  639        0.728152
  640        0.728166
  641        0.728182
  642        0.728258
  643        0.730300
  644        0.730301
  645        0.752556
  646        0.752564
  647        0.796662
  648        0.796662
  649        6.740178
  650        7.687820
  651        7.687822
  652        8.062480
  653        8.062551
  654        8.062573
  655        8.062677
  656        8.062830
  657        8.062847
  658        8.747820
  659        8.747822
  660        8.747892
  661        8.747893
  662        8.747896
  663        8.747898
  664        8.748009
  665        8.748011
  666        8.748148
  667        8.748150
  668        8.748152
  669        8.748154
  670        9.465057
  671        9.465057
  672        9.551317
  673        9.551320
  674        9.552035
  675        9.552036
  676        9.552757
  677        9.552788
  678        9.873517
  679        9.873517
  680        9.873538
  681        9.873538
  682        9.906610
  683        9.906652
  684        9.906773
  685        9.906830
  686        9.906869
  687        9.906943
  688        9.940641
  689        9.940642
  690        9.940647
  691        9.940648
  692       10.006410
  693       10.006875
  694       10.131456
  695       10.131457
  696       10.131471
  697       10.131471
  698       10.131582
  699       10.131582
  700       10.131582
  701       10.131583
  702       10.131687
  703       10.131687
  704       10.131715
  705       10.131716
  706       10.202430
  707       10.202436
  708       10.302013
  709       10.302575
  710       10.343255
  711       10.343256
  712       10.343276
  713       10.343277
  714       10.343374
  715       10.343375
  716       10.343417
  717       10.343417
  718       10.343535
  719       10.343536
  720       10.343542
  721       10.343542
  722       10.389610
  723       10.389611
  724       10.489661
  725       10.489689
  726       10.489707
  727       10.489746
  728       10.489805
  729       10.489875
  730       10.507942
  731       10.507958
  732       10.542341
  733       10.542347
  734       10.542401
  735       10.542423
  736       10.542665
  737       10.542676
  738       10.542719
  739       10.542723
  740       10.542840
  741       10.542854
  742       10.542939
  743       10.542952
  744       10.570483
  745       10.570497
  746       10.570502
  747       10.570521
  748       10.570537
  749       10.570640
  750       10.623445
  751       10.623449
  752       10.623461
  753       10.623484
  754       10.772604
  755       10.772624
  756       10.772665
  757       10.772700
  758       10.772734
  759       10.772741
  760       10.772764
  761       10.772798
  762       10.772837
  763       10.772873
  764       10.773159
  765       10.774338
  766       10.825789
  767       10.825849
  768       10.826336
  769       10.827818
  770       10.890517
  771       10.890677
  772       10.890906
  773       10.891124
  774       10.891736
  775       10.895822
  776       11.000402
  777       11.003302
  778       11.016572
  779       11.024442
  780       11.064658
  781       11.066424
  782       11.069786
  783       11.077978
  784       11.121367
 
  0.1250000E+00  0.3650089E-17  0.1526694E-23  0.1171875E-01
    1      -18.818981
    2      -18.611566
    3      -18.611564
    4      -18.597639
    5      -18.564083
    6      -18.564075
    7      -18.501764
    8      -18.501751
    9      -18.474599
   10      -18.444921
   11      -18.444918
   12      -18.423667
   13      -18.423666
   14      -18.423652
   15      -18.423649
   16      -18.387579
   17      -18.387579
   18      -18.387557
   19      -18.387553
   20      -18.373147
   21      -18.373143
   22      -18.282135
   23      -18.282132
   24      -18.282126
   25      -18.282123
   26      -18.180952
   27      -18.180924
   28      -18.052467
   29      -18.052437
   30      -18.043734
   31      -18.043734
   32      -17.971966
   33      -17.971965
   34      -17.959811
   35      -17.959810
   36      -17.959794
   37      -17.959792
   38      -17.935752
   39      -17.935751
   40      -17.935726
   41      -17.935723
   42      -17.924400
   43      -17.924398
   44      -17.806786
   45      -17.806784
   46      -17.806774
   47      -17.806773
   48      -17.748755
   49      -17.714334
   50      -17.714319
   51      -17.637174
   52      -17.637167
   53      -17.595549
   54      -17.446235
   55      -17.446234
   56      -17.446228
   57      -17.446227
   58      -17.312561
   59      -17.312554
   60      -17.295723
   61      -17.288289
   62      -17.277982
   63      -17.277949
   64      -17.277610
   65      -17.276449
   66      -17.276414
   67      -17.274635
   68      -17.209883
   69      -17.209881
   70      -17.178196
   71      -17.178194
   72      -17.178158
   73      -17.178155
   74      -17.102087
   75      -17.102085
   76      -17.102055
   77      -17.102052
   78      -17.058376
   79      -17.058374
   80      -16.705249
   81      -16.705247
   82      -16.665583
   83      -16.665581
   84      -16.665576
   85      -16.665573
   86      -16.658400
   87      -16.656943
   88      -16.656941
   89      -16.655722
   90      -16.655720
   91      -16.655692
   92      -16.655688
   93      -16.654850
   94      -16.654849
   95      -16.654841
   96      -16.654840
   97      -16.652947
   98      -16.652488
   99      -16.652480
  100      -16.652235
  101      -16.652233
  102      -16.652205
  103      -16.652201
  104      -16.651611
  105      -16.651463
  106      -16.651448
  107      -16.649594
  108      -16.649592
  109      -16.648056
  110      -16.648041
  111      -16.647817
  112      -16.647813
  113      -16.647702
  114      -16.647272
  115      -16.647271
  116      -16.647200
  117      -16.647196
  118      -16.646102
  119      -16.646038
  120      -16.644793
  121      -16.644792
  122      -16.644725
  123      -16.644721
  124      -16.643841
  125      -16.643838
  126      -16.643507
  127      -16.643449
  128      -16.643180
  129      -16.643176
  130      -16.641624
  131      -16.640489
  132      -16.640460
  133      -16.639213
  134      -16.639179
  135      -16.638184
  136      -16.638183
  137      -16.638177
  138      -16.638177
  139      -16.637592
  140      -16.636255
  141      -16.636220
  142      -16.633862
  143      -16.633825
  144      -16.632986
  145      -16.628888
  146      -16.628886
  147      -16.628012
  148      -16.628009
  149      -16.628001
  150      -16.627999
  151      -16.627144
  152      -16.627143
  153      -16.625928
  154      -16.625926
  155      -16.625914
  156      -16.625913
  157      -16.624650
  158      -16.624647
  159      -16.623085
  160      -16.623082
  161      -16.621008
  162      -16.620886
  163       -8.872359
  164       -8.872357
  165       -8.324573
  166       -8.324570
  167       -8.250981
  168       -8.250979
  169       -8.250973
  170       -8.250970
  171       -8.120983
  172       -8.120981
  173       -8.120969
  174       -8.120966
  175       -8.074637
  176       -8.074635
  177       -8.065980
  178       -8.065977
  179       -7.973679
  180       -7.969149
  181       -7.969140
  182       -7.950353
  183       -7.950346
  184       -7.936778
  185       -7.829451
  186       -7.813683
  187       -7.687836
  188       -7.687835
  189       -7.687828
  190       -7.687826
  191       -7.301254
  192       -7.229844
  193       -7.229830
  194       -7.112523
  195       -7.112504
  196       -7.071208
  197       -6.767260
  198       -6.767259
  199       -6.767251
  200       -6.767250
  201       -6.723621
  202       -6.723619
  203       -6.689864
  204       -6.689862
  205       -6.689859
  206       -6.689857
  207       -6.624211
  208       -6.624210
  209       -6.624209
  210       -6.624208
  211       -6.591342
  212       -6.591341
  213       -6.337727
  214       -6.337727
  215       -6.324868
  216       -6.324841
  217       -6.138236
  218       -6.138233
  219       -6.138230
  220       -6.138228
  221       -5.993896
  222       -5.993863
  223       -5.767992
  224       -5.767991
  225       -5.754372
  226       -5.754370
  227       -5.754330
  228       -5.754327
  229       -5.699033
  230       -5.699032
  231       -5.698994
  232       -5.698992
  233       -5.659326
  234       -5.659325
  235       -5.207716
  236       -5.207715
  237       -5.143848
  238       -5.143846
  239       -5.143159
  240       -5.143109
  241       -5.130004
  242       -5.084949
  243       -5.084937
  244       -5.052995
  245       -5.039799
  246       -5.039798
  247       -5.039631
  248       -5.032227
  249       -4.995839
  250       -4.995806
  251       -4.972944
  252       -4.969466
  253       -4.969405
  254       -4.965023
  255       -4.965021
  256       -4.946916
  257       -4.946916
  258       -4.946879
  259       -4.946877
  260       -4.922397
  261       -4.922396
  262       -4.922358
  263       -4.922356
  264       -4.915698
  265       -4.915695
  266       -4.870994
  267       -4.870050
  268       -4.870009
  269       -4.868629
  270       -4.868590
  271       -4.866964
  272       -4.848263
  273       -4.848243
  274       -4.840718
  275       -4.840699
  276       -4.824897
  277       -4.824897
  278       -4.824893
  279       -4.824892
  280       -4.745059
  281       -4.641196
  282       -4.606823
  283       -4.570976
  284       -4.570975
  285       -4.536734
  286       -4.536733
  287       -4.536726
  288       -4.536724
  289       -4.482052
  290       -4.482051
  291       -4.482044
  292       -4.482042
  293       -4.460562
  294       -4.460561
  295       -4.442125
  296       -4.442122
  297       -4.442119
  298       -4.442116
  299       -4.287414
  300       -4.287412
  301       -4.272746
  302       -4.272743
  303       -4.272733
  304       -4.272731
  305       -4.272407
  306       -4.272406
  307       -4.272403
  308       -4.272403
  309       -4.235757
  310       -4.235754
  311       -4.235746
  312       -4.235744
  313       -4.212942
  314       -4.212939
  315       -4.179626
  316       -4.138044
  317       -4.138016
  318       -4.069158
  319       -4.069126
  320       -4.042858
  321       -4.009272
  322       -4.009269
  323       -3.861824
  324       -3.861817
  325       -2.535832
  326       -2.535829
  327       -2.535829
  328       -2.535826
  329       -2.498814
  330       -2.498813
  331       -2.492203
  332       -2.492202
  333       -2.492200
  334       -2.492200
  335       -2.470287
  336       -2.470287
  337       -2.470281
  338       -2.470281
  339       -2.454726
  340       -2.454630
  341       -2.454607
  342       -2.454050
  343       -2.454049
  344       -2.451196
  345       -2.451189
  346       -2.446229
  347       -2.346881
  348       -2.346881
  349       -2.341169
  350       -2.341071
  351       -2.314918
  352       -2.314917
  353       -2.314884
  354       -2.314883
  355       -2.306509
  356       -2.306405
  357       -2.249427
  358       -2.249426
  359       -2.249408
  360       -2.249408
  361       -2.244800
  362       -2.244798
  363       -2.244729
  364       -2.244726
  365       -2.220963
  366       -2.213926
  367       -2.213925
  368       -2.213096
  369       -2.199856
  370       -2.199846
  371       -2.199190
  372       -2.192560
  373       -2.192559
  374       -2.181575
  375       -2.181532
  376       -2.175636
  377       -2.172781
  378       -2.115668
  379       -2.115666
  380       -2.115582
  381       -2.115579
  382       -2.015896
  383       -2.015894
  384       -2.015744
  385       -2.015723
  386       -1.952608
  387       -1.912975
  388       -1.912954
  389       -1.892055
  390       -1.892052
  391       -1.852081
  392       -1.852037
  393       -1.845140
  394       -1.845137
  395       -1.845016
  396       -1.845014
  397       -1.840137
  398       -1.840135
  399       -1.835498
  400       -1.835495
  401       -1.835397
  402       -1.835395
  403       -1.825910
  404       -1.825908
  405       -1.823472
  406       -1.806557
  407       -1.758550
  408       -1.723799
  409       -1.723607
  410       -1.683591
  411       -1.683590
  412       -1.668550
  413       -1.668548
  414       -1.668506
  415       -1.668505
  416       -1.638519
  417       -1.638341
  418       -1.629568
  419       -1.629567
  420       -1.629545
  421       -1.629543
  422       -1.614130
  423       -1.614129
  424       -1.583367
  425       -1.548623
  426       -1.548622
  427       -1.501031
  428       -1.501029
  429       -1.490825
  430       -1.490824
  431       -1.490802
  432       -1.490800
  433       -1.489785
  434       -1.489785
  435       -1.486097
  436       -1.486095
  437       -1.486056
  438       -1.486055
  439       -1.480608
  440       -1.480605
  441       -1.437265
  442       -1.437264
  443       -1.406378
  444       -1.393557
  445       -1.393503
  446       -1.393091
  447       -1.393088
  448       -1.392971
  449       -1.392968
  450       -1.362347
  451       -1.362262
  452       -1.350811
  453       -1.350772
  454       -1.349571
  455       -1.349569
  456       -1.349480
  457       -1.349478
  458       -1.342803
  459       -1.308986
  460       -1.308984
  461       -1.278675
  462       -1.248117
  463       -1.248048
  464       -1.238919
  465       -1.238917
  466       -1.238870
  467       -1.238867
  468       -1.196332
  469       -1.196282
  470       -1.170865
  471       -1.132937
  472       -1.132936
  473       -1.114951
  474       -1.114950
  475       -1.031132
  476       -1.031130
  477       -1.001405
  478       -1.001341
  479       -0.988946
  480       -0.985746
  481       -0.985597
  482       -0.979960
  483       -0.979773
  484       -0.976092
  485       -0.974315
  486       -0.974071
  487       -0.972858
  488       -0.967181
  489       -0.967179
  490       -0.949438
  491       -0.949436
  492       -0.949294
  493       -0.949292
  494       -0.931368
  495       -0.931367
  496       -0.931336
  497       -0.931334
  498       -0.924400
  499       -0.924400
  500       -0.885049
  501       -0.885047
  502       -0.882668
  503       -0.882666
  504       -0.882517
  505       -0.882515
  506       -0.846836
  507       -0.846835
  508       -0.846761
  509       -0.846760
  510       -0.817781
  511       -0.817780
  512       -0.751041
  513       -0.750834
  514       -0.727818
  515       -0.727816
  516       -0.681335
  517       -0.681333
  518       -0.681294
  519       -0.681293
  520       -0.637739
  521       -0.637739
  522       -0.637710
  523       -0.637709
  524       -0.637183
  525       -0.637039
  526       -0.614171
  527       -0.614170
  528       -0.614069
  529       -0.614068
  530       -0.591875
  531       -0.591873
  532       -0.473668
  533       -0.473577
  534       -0.459019
  535       -0.458925
  536       -0.454167
  537       -0.428884
  538       -0.391882
  539       -0.391882
  540       -0.391867
  541       -0.391866
  542       -0.318682
  543       -0.318680
  544       -0.296197
  545       -0.269934
  546       -0.269783
  547       -0.264882
  548       -0.257060
  549       -0.257060
  550       -0.257045
  551       -0.257044
  552       -0.255049
  553       -0.254848
  554       -0.235461
  555       -0.231044
  556       -0.183946
  557       -0.183945
  558       -0.183672
  559       -0.155535
  560       -0.155534
  561       -0.155417
  562       -0.155416
  563       -0.133532
  564       -0.133448
  565       -0.129547