<?xml version="1.0" encoding="ISO-8859-1"?>
<modeling>
 <generator>
  <i name="program" type="string">vasp </i>
  <i name="version" type="string">5.3.5  </i>
  <i name="subversion" type="string">31Mar14 (build Oct 18 2016 11:10:54) complex                          parallel </i>
  <i name="platform" type="string">LinuxIFC </i>
  <i name="date" type="string">2017 10 09 </i>
  <i name="time" type="string">14:09:19 </i>
 </generator>
 <incar>
  <i type="string" name="SYSTEM"> (Si O2)81  (P1) ~ Ciellie_MCM41 (MD</i>
  <i type="string" name="PREC">accurate</i>
  <i type="string" name="ALGO"> Normal (blocked Davidson)</i>
  <i type="int" name="ICHARG">     2</i>
  <i type="int" name="NELMIN">     2</i>
  <i type="int" name="IBRION">    -1</i>
  <i name="EDIFF">      0.00001000</i>
  <i type="int" name="ISIF">     2</i>
  <i name="ENCUT">    400.00000000</i>
  <i type="int" name="NGXF">    98</i>
  <i type="int" name="NGYF">    98</i>
  <i type="int" name="NGZF">   108</i>
  <i type="string" name="LREAL"> Auto</i>
  <i type="int" name="ISMEAR">     0</i>
  <i name="SIGMA">      0.05000000</i>
  <i type="logical" name="LWAVE"> F  </i>
  <i type="logical" name="LCHARG"> F  </i>
 </incar>
 <kpoints>
  <generation param="Gamma">
   <v type="int" name="divisions">       8        8        8 </v>
   <v name="usershift">      0.00000000       0.00000000       0.00000000 </v>
   <v name="genvec1">      0.12500000       0.00000000       0.00000000 </v>
   <v name="genvec2">      0.00000000       0.12500000       0.00000000 </v>
   <v name="genvec3">      0.00000000       0.00000000       0.12500000 </v>
   <v name="shift">      0.00000000       0.00000000       0.00000000 </v>
  </generation>
  <varray name="kpointlist" >
   <v>       0.00000000       0.00000000       0.00000000 </v>
   <v>       0.12500000       0.00000000       0.00000000 </v>
   <v>       0.25000000       0.00000000       0.00000000 </v>
   <v>       0.37500000      -0.00000000       0.00000000 </v>
   <v>       0.50000000       0.00000000       0.00000000 </v>
   <v>       0.12500000       0.12500000       0.00000000 </v>
   <v>       0.25000000       0.12500000       0.00000000 </v>
   <v>       0.37500000       0.12500000       0.00000000 </v>
   <v>       0.25000000       0.25000000       0.00000000 </v>
   <v>       0.37500000       0.25000000       0.00000000 </v>
   <v>       0.00000000       0.00000000       0.12500000 </v>
   <v>       0.12500000       0.00000000       0.12500000 </v>
   <v>       0.25000000       0.00000000       0.12500000 </v>
   <v>       0.37500000      -0.00000000       0.12500000 </v>
   <v>       0.50000000       0.00000000       0.12500000 </v>
   <v>       0.12500000       0.12500000       0.12500000 </v>
   <v>       0.25000000       0.12500000       0.12500000 </v>
   <v>       0.37500000       0.12500000       0.12500000 </v>
   <v>       0.25000000       0.25000000       0.12500000 </v>
   <v>       0.37500000       0.25000000       0.12500000 </v>
   <v>       0.00000000       0.00000000       0.25000000 </v>
   <v>       0.12500000       0.00000000       0.25000000 </v>
   <v>       0.25000000       0.00000000       0.25000000 </v>
   <v>       0.37500000      -0.00000000       0.25000000 </v>
   <v>       0.50000000       0.00000000       0.25000000 </v>
   <v>       0.12500000       0.12500000       0.25000000 </v>
   <v>       0.25000000       0.12500000       0.25000000 </v>
   <v>       0.37500000       0.12500000       0.25000000 </v>
   <v>       0.25000000       0.25000000       0.25000000 </v>
   <v>       0.37500000       0.25000000       0.25000000 </v>
   <v>       0.00000000       0.00000000       0.37500000 </v>
   <v>       0.12500000       0.00000000       0.37500000 </v>
   <v>       0.25000000       0.00000000       0.37500000 </v>
   <v>       0.37500000      -0.00000000       0.37500000 </v>
   <v>       0.50000000       0.00000000       0.37500000 </v>
   <v>       0.12500000       0.12500000       0.37500000 </v>
   <v>       0.25000000       0.12500000       0.37500000 </v>
   <v>       0.37500000       0.12500000       0.37500000 </v>
   <v>       0.25000000       0.25000000       0.37500000 </v>
   <v>       0.37500000       0.25000000       0.37500000 </v>
   <v>       0.00000000       0.00000000       0.50000000 </v>
   <v>       0.12500000       0.00000000       0.50000000 </v>
   <v>       0.25000000       0.00000000       0.50000000 </v>
   <v>       0.37500000      -0.00000000       0.50000000 </v>
   <v>       0.50000000       0.00000000       0.50000000 </v>
   <v>       0.12500000       0.12500000       0.50000000 </v>
   <v>       0.25000000       0.12500000       0.50000000 </v>
   <v>       0.37500000       0.12500000       0.50000000 </v>
   <v>       0.25000000       0.25000000       0.50000000 </v>
   <v>       0.37500000       0.25000000       0.50000000 </v>
  </varray>
  <varray name="weights" >
   <v>       0.00195312 </v>
   <v>       0.01171875 </v>
   <v>       0.01171875 </v>
   <v>       0.01171875 </v>
   <v>       0.00585938 </v>
   <v>       0.01171875 </v>
   <v>       0.02343750 </v>
   <v>       0.02343750 </v>
   <v>       0.01171875 </v>
   <v>       0.01171875 </v>
   <v>       0.00390625 </v>
   <v>       0.02343750 </v>
   <v>       0.02343750 </v>
   <v>       0.02343750 </v>
   <v>       0.01171875 </v>
   <v>       0.02343750 </v>
   <v>       0.04687500 </v>
   <v>       0.04687500 </v>
   <v>       0.02343750 </v>
   <v>       0.02343750 </v>
   <v>       0.00390625 </v>
   <v>       0.02343750 </v>
   <v>       0.02343750 </v>
   <v>       0.02343750 </v>
   <v>       0.01171875 </v>
   <v>       0.02343750 </v>
   <v>       0.04687500 </v>
   <v>       0.04687500 </v>
   <v>       0.02343750 </v>
   <v>       0.02343750 </v>
   <v>       0.00390625 </v>
   <v>       0.02343750 </v>
   <v>       0.02343750 </v>
   <v>       0.02343750 </v>
   <v>       0.01171875 </v>
   <v>       0.02343750 </v>
   <v>       0.04687500 </v>
   <v>       0.04687500 </v>
   <v>       0.02343750 </v>
   <v>       0.02343750 </v>
   <v>       0.00195312 </v>
   <v>       0.01171875 </v>
   <v>       0.01171875 </v>
   <v>       0.01171875 </v>
   <v>       0.00585938 </v>
   <v>       0.01171875 </v>
   <v>       0.02343750 </v>
   <v>       0.02343750 </v>
   <v>       0.01171875 </v>
   <v>       0.01171875 </v>
  </varray>
 </kpoints>
 <parameters>
  <separator name="general" >
   <i type="string" name="SYSTEM">(Si O2)81  (P1) ~ Ciellie_MCM41 (MD</i>
   <i type="logical" name="LCOMPAT"> F  </i>
  </separator>
  <separator name="electronic" >
   <i type="string" name="PREC">accura</i>
   <i name="ENMAX">    400.00000000</i>
   <i name="ENAUG">    605.39200000</i>
   <i name="EDIFF">      0.00001000</i>
   <i type="int" name="IALGO">    38</i>
   <i type="int" name="IWAVPR">    10</i>
   <i type="int" name="NBANDS">   784</i>
   <i name="NELECT">   1296.00000000</i>
   <i type="int" name="TURBO">     0</i>
   <i type="int" name="IRESTART">     0</i>
   <i type="int" name="NREBOOT">     0</i>
   <i type="int" name="NMIN">     0</i>
   <i name="EREF">      0.00000000</i>
   <separator name="electronic smearing" >
    <i type="int" name="ISMEAR">     0</i>
    <i name="SIGMA">      0.05000000</i>
    <i name="KSPACING">      0.50000000</i>
    <i type="logical" name="KGAMMA"> T  </i>
   </separator>
   <separator name="electronic projectors" >
    <i type="logical" name="LREAL"> T  </i>
    <v name="ROPT">     -0.00025000     -0.00025000</v>
    <i type="int" name="LMAXPAW">  -100</i>
    <i type="int" name="LMAXMIX">     2</i>
    <i type="logical" name="NLSPLINE"> F  </i>
   </separator>
   <separator name="electronic startup" >
    <i type="int" name="ISTART">     0</i>
    <i type="int" name="ICHARG">     2</i>
    <i type="int" name="INIWAV">     1</i>
   </separator>
   <separator name="electronic spin" >
    <i type="int" name="ISPIN">     1</i>
    <i type="logical" name="LNONCOLLINEAR"> F  </i>
    <v name="MAGMOM">      1.00000000      1.00000000      1.00000000      1.00000000      1.00000000      1.00000000      1.00000000      1.00000000      1.00000000      1.00000000      1.00000000      1.00000000      1.00000000      1.00000000      1.00000000      1.00000000      1.00000000      1.00000000      1.00000000      1.00000000
      1.00000000      1.00000000      1.00000000      1.00000000      1.00000000      1.00000000      1.00000000      1.00000000      1.00000000      1.00000000      1.00000000      1.00000000      1.00000000      1.00000000      1.00000000      1.00000000      1.00000000      1.00000000      1.00000000      1.00000000
      1.00000000      1.00000000      1.00000000      1.00000000      1.00000000      1.00000000      1.00000000      1.00000000      1.00000000      1.00000000      1.00000000      1.00000000      1.00000000      1.00000000      1.00000000      1.00000000      1.00000000      1.00000000      1.00000000      1.00000000
      1.00000000      1.00000000      1.00000000      1.00000000      1.00000000      1.00000000      1.00000000      1.00000000      1.00000000      1.00000000      1.00000000      1.00000000      1.00000000      1.00000000      1.00000000      1.00000000      1.00000000      1.00000000      1.00000000      1.00000000
      1.00000000      1.00000000      1.00000000      1.00000000      1.00000000      1.00000000      1.00000000      1.00000000      1.00000000      1.00000000      1.00000000      1.00000000      1.00000000      1.00000000      1.00000000      1.00000000      1.00000000      1.00000000      1.00000000      1.00000000
      1.00000000      1.00000000      1.00000000      1.00000000      1.00000000      1.00000000      1.00000000      1.00000000      1.00000000      1.00000000      1.00000000      1.00000000      1.00000000      1.00000000      1.00000000      1.00000000      1.00000000      1.00000000      1.00000000      1.00000000
      1.00000000      1.00000000      1.00000000      1.00000000      1.00000000      1.00000000      1.00000000      1.00000000      1.00000000      1.00000000      1.00000000      1.00000000      1.00000000      1.00000000      1.00000000      1.00000000      1.00000000      1.00000000      1.00000000      1.00000000
      1.00000000      1.00000000      1.00000000      1.00000000      1.00000000      1.00000000      1.00000000      1.00000000      1.00000000      1.00000000      1.00000000      1.00000000      1.00000000      1.00000000      1.00000000      1.00000000      1.00000000      1.00000000      1.00000000      1.00000000
      1.00000000      1.00000000      1.00000000      1.00000000      1.00000000      1.00000000      1.00000000      1.00000000      1.00000000      1.00000000      1.00000000      1.00000000      1.00000000      1.00000000      1.00000000      1.00000000      1.00000000      1.00000000      1.00000000      1.00000000
      1.00000000      1.00000000      1.00000000      1.00000000      1.00000000      1.00000000      1.00000000      1.00000000      1.00000000      1.00000000      1.00000000      1.00000000      1.00000000      1.00000000      1.00000000      1.00000000      1.00000000      1.00000000      1.00000000      1.00000000
      1.00000000      1.00000000      1.00000000      1.00000000      1.00000000      1.00000000      1.00000000      1.00000000      1.00000000      1.00000000      1.00000000      1.00000000      1.00000000      1.00000000      1.00000000      1.00000000      1.00000000      1.00000000      1.00000000      1.00000000
      1.00000000      1.00000000      1.00000000      1.00000000      1.00000000      1.00000000      1.00000000      1.00000000      1.00000000      1.00000000      1.00000000      1.00000000      1.00000000      1.00000000      1.00000000      1.00000000      1.00000000      1.00000000      1.00000000      1.00000000
      1.00000000      1.00000000      1.00000000</v>
    <i name="NUPDOWN">     -1.00000000</i>
    <i type="logical" name="LSORBIT"> F  </i>
    <v name="SAXIS">      0.00000000      0.00000000      1.00000000</v>
    <i type="logical" name="LSPIRAL"> F  </i>
    <v name="QSPIRAL">      0.00000000      0.00000000      0.00000000</v>
    <i type="logical" name="LZEROZ"> F  </i>
   </separator>
   <separator name="electronic exchange-correlation" >
    <i type="logical" name="LASPH"> F  </i>
    <i type="logical" name="LMETAGGA"> F  </i>
   </separator>
   <separator name="electronic convergence" >
    <i type="int" name="NELM">    60</i>
    <i type="int" name="NELMDL">    -5</i>
    <i type="int" name="NELMIN">     2</i>
    <i name="ENINI">    400.00000000</i>
    <separator name="electronic convergence detail" >
     <i type="logical" name="LDIAG"> T  </i>
     <i type="logical" name="LSUBROT"> F  </i>
     <i name="WEIMIN">      0.00000000</i>
     <i name="EBREAK">      0.00000000</i>
     <i name="DEPER">      0.30000000</i>
     <i type="int" name="NRMM">     4</i>
     <i name="TIME">      0.40000000</i>
    </separator>
   </separator>
   <separator name="electronic mixer" >
    <i name="AMIX">      0.40000000</i>
    <i name="BMIX">      1.00000000</i>
    <i name="AMIN">      0.10000000</i>
    <i name="AMIX_MAG">      1.60000000</i>
    <i name="BMIX_MAG">      1.00000000</i>
    <separator name="electronic mixer details" >
     <i type="int" name="IMIX">     4</i>
     <i type="int" name="MAXMIX">   -45</i>
     <i name="WC">    100.00000000</i>
     <i type="int" name="INIMIX">     1</i>
     <i type="int" name="MIXPRE">     1</i>
     <i type="int" name="MREMOVE">     5</i>
    </separator>
   </separator>
   <separator name="electronic dipolcorrection" >
    <i type="logical" name="LDIPOL"> F  </i>
    <i type="logical" name="LMONO"> F  </i>
    <i type="int" name="IDIPOL">     0</i>
    <i name="EPSILON">      1.00000000</i>
    <v name="DIPOL">   -100.00000000   -100.00000000   -100.00000000</v>
    <i name="EFIELD">      0.00000000</i>
   </separator>
  </separator>
  <separator name="grids" >
   <i type="int" name="NGX">    98</i>
   <i type="int" name="NGY">    98</i>
   <i type="int" name="NGZ">   108</i>
   <i type="int" name="NGXF">    98</i>
   <i type="int" name="NGYF">    98</i>
   <i type="int" name="NGZF">   108</i>
   <i type="logical" name="ADDGRID"> F  </i>
  </separator>
  <separator name="ionic" >
   <i type="int" name="NSW">     0</i>
   <i type="int" name="IBRION">    -1</i>
   <i type="int" name="ISIF">     2</i>
   <i name="PSTRESS">      0.00000000</i>
   <i name="EDIFFG">      0.00010000</i>
   <i type="int" name="NFREE">     0</i>
   <i name="POTIM">      0.50000000</i>
   <i name="SMASS">     -3.00000000</i>
   <i name="SCALEE">      1.00000000</i>
  </separator>
  <separator name="ionic md" >
   <i name="TEBEG">      0.00010000</i>
   <i name="TEEND">      0.00010000</i>
   <i type="int" name="NBLOCK">     1</i>
   <i type="int" name="KBLOCK">     1</i>
   <i type="int" name="NPACO">   256</i>
   <i name="APACO">     16.00000000</i>
  </separator>
  <separator name="symmetry" >
   <i type="int" name="ISYM">     2</i>
   <i name="SYMPREC">      0.00001000</i>
  </separator>
  <separator name="dos" >
   <i type="logical" name="LORBIT"> F  </i>
   <v name="RWIGS">     -1.00000000     -1.00000000</v>
   <i type="int" name="NEDOS">   301</i>
   <i name="EMIN">     10.00000000</i>
   <i name="EMAX">    -10.00000000</i>
   <i name="EFERMI">      0.00000000</i>
  </separator>
  <separator name="writing" >
   <i type="int" name="NWRITE">     2</i>
   <i type="logical" name="LWAVE"> F  </i>
   <i type="logical" name="LCHARG"> F  </i>
   <i type="logical" name="LPARD"> F  </i>
   <i type="logical" name="LVTOT"> F  </i>
   <i type="logical" name="LVHAR"> F  </i>
   <i type="logical" name="LELF"> F  </i>
   <i type="logical" name="LOPTICS"> F  </i>
   <v name="STM">      0.00000000      0.00000000      0.00000000      0.00000000      0.00000000      0.00000000      0.00000000</v>
  </separator>
  <separator name="performance" >
   <i type="int" name="NPAR">     8</i>
   <i type="int" name="NSIM">     4</i>
   <i type="int" name="NBLK">    -1</i>
   <i type="logical" name="LPLANE"> T  </i>
   <i type="logical" name="LSCALAPACK"> T  </i>
   <i type="logical" name="LSCAAWARE"> T  </i>
   <i type="logical" name="LSCALU"> F  </i>
   <i type="logical" name="LASYNC"> F  </i>
   <i type="logical" name="LORBITALREAL"> F  </i>
  </separator>
  <separator name="miscellaneous" >
   <i type="int" name="IDIOT">     3</i>
   <i type="logical" name="LMUSIC"> F  </i>
   <v name="POMASS">     16.00000000     28.08500000</v>
   <v name="DARWINR">      0.00000000      0.00000000</v>
   <v name="DARWINV">      1.00000000      1.00000000</v>
   <i type="logical" name="LCORR"> T  </i>
  </separator>
  <i type="logical" name="GGA_COMPAT"> T  </i>
  <i type="logical" name="LBERRY"> F  </i>
  <i type="int" name="ICORELEVEL">     0</i>
  <i type="logical" name="LDAU"> F  </i>
  <i type="int" name="I_CONSTRAINED_M">     0</i>
  <separator name="electronic exchange-correlation" >
   <i type="string" name="GGA">--</i>
   <i type="int" name="VOSKOWN">     0</i>
   <i type="logical" name="LHFCALC"> F  </i>
   <i type="string" name="PRECFOCK"></i>
   <i type="logical" name="LSYMGRAD"> F  </i>
   <i type="logical" name="LHFONE"> F  </i>
   <i type="logical" name="LRHFCALC"> F  </i>
   <i type="logical" name="LTHOMAS"> F  </i>
   <i type="logical" name="LMODELHF"> F  </i>
   <i name="ENCUT4O">     -1.00000000</i>
   <i type="int" name="EXXOEP">     0</i>
   <i type="int" name="FOURORBIT">     0</i>
   <i name="AEXX">      0.00000000</i>
   <i name="HFALPHA">      0.00000000</i>
   <i name="MCALPHA">      0.00000000</i>
   <i name="ALDAX">      1.00000000</i>
   <i name="AGGAX">      1.00000000</i>
   <i name="ALDAC">      1.00000000</i>
   <i name="AGGAC">      1.00000000</i>
   <i type="int" name="NKREDX">     1</i>
   <i type="int" name="NKREDY">     1</i>
   <i type="int" name="NKREDZ">     1</i>
   <i type="logical" name="SHIFTRED"> F  </i>
   <i type="logical" name="ODDONLY"> F  </i>
   <i type="logical" name="EVENONLY"> F  </i>
   <i type="int" name="LMAXFOCK">     0</i>
   <i type="int" name="NMAXFOCKAE">     0</i>
   <i type="logical" name="LFOCKAEDFT"> F  </i>
   <i name="HFSCREEN">      0.00000000</i>
   <i name="HFSCREENC">      0.00000000</i>
   <i type="int" name="NBANDSGWLOW">     0</i>
  </separator>
  <separator name="vdW DFT" >
   <i type="logical" name="LUSE_VDW"> F  </i>
   <i name="Zab_VDW">     -0.84910000</i>
   <i name="PARAM1">      0.12340000</i>
   <i name="PARAM2">      1.00000000</i>
   <i name="PARAM3">      0.00000000</i>
  </separator>
  <separator name="model GW" >
   <i type="int" name="MODEL_GW">     0</i>
   <i name="MODEL_EPS0">      7.86828565</i>
   <i name="MODEL_ALPHA">      1.00000000</i>
  </separator>
  <separator name="linear response parameters" >
   <i type="logical" name="LEPSILON"> F  </i>
   <i type="logical" name="LRPA"> F  </i>
   <i type="logical" name="LNABLA"> F  </i>
   <i type="logical" name="LVEL"> F  </i>
   <i type="int" name="KINTER">     0</i>
   <i name="CSHIFT">      0.10000000</i>
   <i name="OMEGAMAX">     -1.00000000</i>
   <i name="DEG_THRESHOLD">      0.00200000</i>
  </separator>
  <separator name="orbital magnetization" >
   <i type="logical" name="NUCIND"> F  </i>
   <v name="MAGPOS">      0.00000000      0.00000000      0.00000000</v>
   <i type="logical" name="LNICSALL"> T  </i>
   <i type="logical" name="ORBITALMAG"> F  </i>
   <i type="logical" name="LMAGBLOCH"> F  </i>
   <i type="logical" name="LCHIMAG"> F  </i>
   <i type="logical" name="LGAUGE"> T  </i>
   <i type="int" name="MAGATOM">     0</i>
   <v name="MAGDIPOL">      0.00000000      0.00000000      0.00000000</v>
   <v name="AVECCONST">      0.00000000      0.00000000      0.00000000</v>
  </separator>
  <separator name="response functions" >
   <i type="logical" name="LADDER"> F  </i>
   <i type="logical" name="LFXC"> F  </i>
   <i type="logical" name="LHARTREE"> T  </i>
   <i type="int" name="IBSE">     0</i>
   <i type="logical" name="LTCTE"> F  </i>
   <i type="logical" name="LTETE"> F  </i>
   <i type="logical" name="LTRIPLET"> F  </i>
   <i type="logical" name="LFXCEPS"> F  </i>
   <i type="logical" name="LFXHEG"> F  </i>
   <i type="logical" name="L2ORDER"> F  </i>
   <i type="logical" name="LUSEW"> F  </i>
   <i name="ENCUTGW">     -2.00000000</i>
   <i name="ENCUTGWSOFT">     -2.00000000</i>
   <i name="ENCUTLF">     -1.00000000</i>
   <i type="int" name="LMAXMP2">    -1</i>
   <i name="SCISSOR">      0.00000000</i>
   <i type="int" name="NOMEGA">     0</i>
   <i type="int" name="NOMEGAR">     0</i>
   <i type="int" name="NBANDSGW">    -1</i>
   <i type="int" name="NBANDSO">    -1</i>
   <i type="int" name="NBANDSV">    -1</i>
   <i type="int" name="NELM">     1</i>
   <i type="int" name="DIM">     3</i>
   <i type="int" name="ANTIRES">     0</i>
   <i name="OMEGAMAX">    -30.00000000</i>
   <i name="OMEGAMIN">    -30.00000000</i>
   <i name="OMEGATL">   -200.00000000</i>
   <i type="int" name="OMEGAGRID">     0</i>
   <i name="CSHIFT">     -0.10000000</i>
   <i type="logical" name="SELFENERGY"> F  </i>
   <i type="logical" name="LSPECTRAL"> F  </i>
   <i type="logical" name="ODDONLYGW"> F  </i>
   <i type="logical" name="EVENONLYGW"> F  </i>
   <i type="int" name="NKREDLFX">     1</i>
   <i type="int" name="NKREDLFY">     1</i>
   <i type="int" name="NKREDLFZ">     1</i>
   <i type="int" name="MAXMEM">  1800</i>
   <i type="int" name="TELESCOPE">     0</i>
   <i type="int" name="TAUPAR">     1</i>
  </separator>
  <separator name="External order field" >
   <i name="OFIELD_KAPPA">      0.00000000</i>
   <v name="OFIELD_K">      0.00000000      0.00000000      0.00000000</v>
   <i name="OFIELD_Q6_NEAR">      0.00000000</i>
   <i name="OFIELD_Q6_FAR">      0.00000000</i>
   <i name="OFIELD_A">      0.00000000</i>
  </separator>
 </parameters>
 <atominfo>
  <atoms>     243 </atoms>
  <types>       2 </types>
  <array name="atoms" >
   <dimension dim="1">ion</dimension>
   <field type="string">element</field>
   <field type="int">atomtype</field>
   <set>
    <rc><c>O </c><c>   1</c></rc>
    <rc><c>O </c><c>   1</c></rc>
    <rc><c>O </c><c>   1</c></rc>
    <rc><c>O </c><c>   1</c></rc>
    <rc><c>O </c><c>   1</c></rc>
    <rc><c>O </c><c>   1</c></rc>
    <rc><c>O </c><c>   1</c></rc>
    <rc><c>O </c><c>   1</c></rc>
    <rc><c>O </c><c>   1</c></rc>
    <rc><c>O </c><c>   1</c></rc>
    <rc><c>O </c><c>   1</c></rc>
    <rc><c>O </c><c>   1</c></rc>
    <rc><c>O </c><c>   1</c></rc>
    <rc><c>O </c><c>   1</c></rc>
    <rc><c>O </c><c>   1</c></rc>
    <rc><c>O </c><c>   1</c></rc>
    <rc><c>O </c><c>   1</c></rc>
    <rc><c>O </c><c>   1</c></rc>
    <rc><c>O </c><c>   1</c></rc>
    <rc><c>O </c><c>   1</c></rc>
    <rc><c>O </c><c>   1</c></rc>
    <rc><c>O </c><c>   1</c></rc>
    <rc><c>O </c><c>   1</c></rc>
    <rc><c>O </c><c>   1</c></rc>
    <rc><c>O </c><c>   1</c></rc>
    <rc><c>O </c><c>   1</c></rc>
    <rc><c>O </c><c>   1</c></rc>
    <rc><c>O </c><c>   1</c></rc>
    <rc><c>O </c><c>   1</c></rc>
    <rc><c>O </c><c>   1</c></rc>
    <rc><c>O </c><c>   1</c></rc>
    <rc><c>O </c><c>   1</c></rc>
    <rc><c>O </c><c>   1</c></rc>
    <rc><c>O </c><c>   1</c></rc>
    <rc><c>O </c><c>   1</c></rc>
    <rc><c>O </c><c>   1</c></rc>
    <rc><c>O </c><c>   1</c></rc>
    <rc><c>O </c><c>   1</c></rc>
    <rc><c>O </c><c>   1</c></rc>
    <rc><c>O </c><c>   1</c></rc>
    <rc><c>O </c><c>   1</c></rc>
    <rc><c>O </c><c>   1</c></rc>
    <rc><c>O </c><c>   1</c></rc>
    <rc><c>O </c><c>   1</c></rc>
    <rc><c>O </c><c>   1</c></rc>
    <rc><c>O </c><c>   1</c></rc>
    <rc><c>O </c><c>   1</c></rc>
    <rc><c>O </c><c>   1</c></rc>
    <rc><c>O </c><c>   1</c></rc>
    <rc><c>O </c><c>   1</c></rc>
    <rc><c>O </c><c>   1</c></rc>
    <rc><c>O </c><c>   1</c></rc>
    <rc><c>O </c><c>   1</c></rc>
    <rc><c>O </c><c>   1</c></rc>
    <rc><c>O </c><c>   1</c></rc>
    <rc><c>O </c><c>   1</c></rc>
    <rc><c>O </c><c>   1</c></rc>
    <rc><c>O </c><c>   1</c></rc>
    <rc><c>O </c><c>   1</c></rc>
    <rc><c>O </c><c>   1</c></rc>
    <rc><c>O </c><c>   1</c></rc>
    <rc><c>O </c><c>   1</c></rc>
    <rc><c>O </c><c>   1</c></rc>
    <rc><c>O </c><c>   1</c></rc>
    <rc><c>O </c><c>   1</c></rc>
    <rc><c>O </c><c>   1</c></rc>
    <rc><c>O </c><c>   1</c></rc>
    <rc><c>O </c><c>   1</c></rc>
    <rc><c>O </c><c>   1</c></rc>
    <rc><c>O </c><c>   1</c></rc>
    <rc><c>O </c><c>   1</c></rc>
    <rc><c>O </c><c>   1</c></rc>
    <rc><c>O </c><c>   1</c></rc>
    <rc><c>O </c><c>   1</c></rc>
    <rc><c>O </c><c>   1</c></rc>
    <rc><c>O </c><c>   1</c></rc>
    <rc><c>O </c><c>   1</c></rc>
    <rc><c>O </c><c>   1</c></rc>
    <rc><c>O </c><c>   1</c></rc>
    <rc><c>O </c><c>   1</c></rc>
    <rc><c>O </c><c>   1</c></rc>
    <rc><c>O </c><c>   1</c></rc>
    <rc><c>O </c><c>   1</c></rc>
    <rc><c>O </c><c>   1</c></rc>
    <rc><c>O </c><c>   1</c></rc>
    <rc><c>O </c><c>   1</c></rc>
    <rc><c>O </c><c>   1</c></rc>
    <rc><c>O </c><c>   1</c></rc>
    <rc><c>O </c><c>   1</c></rc>
    <rc><c>O </c><c>   1</c></rc>
    <rc><c>O </c><c>   1</c></rc>
    <rc><c>O </c><c>   1</c></rc>
    <rc><c>O </c><c>   1</c></rc>
    <rc><c>O </c><c>   1</c></rc>
    <rc><c>O </c><c>   1</c></rc>
    <rc><c>O </c><c>   1</c></rc>
    <rc><c>O </c><c>   1</c></rc>
    <rc><c>O </c><c>   1</c></rc>
    <rc><c>O </c><c>   1</c></rc>
    <rc><c>O </c><c>   1</c></rc>
    <rc><c>O </c><c>   1</c></rc>
    <rc><c>O </c><c>   1</c></rc>
    <rc><c>O </c><c>   1</c></rc>
    <rc><c>O </c><c>   1</c></rc>
    <rc><c>O </c><c>   1</c></rc>
    <rc><c>O </c><c>   1</c></rc>
    <rc><c>O </c><c>   1</c></rc>
    <rc><c>O </c><c>   1</c></rc>
    <rc><c>O </c><c>   1</c></rc>
    <rc><c>O </c><c>   1</c></rc>
    <rc><c>O </c><c>   1</c></rc>
    <rc><c>O </c><c>   1</c></rc>
    <rc><c>O </c><c>   1</c></rc>
    <rc><c>O </c><c>   1</c></rc>
    <rc><c>O </c><c>   1</c></rc>
    <rc><c>O </c><c>   1</c></rc>
    <rc><c>O </c><c>   1</c></rc>
    <rc><c>O </c><c>   1</c></rc>
    <rc><c>O </c><c>   1</c></rc>
    <rc><c>O </c><c>   1</c></rc>
    <rc><c>O </c><c>   1</c></rc>
    <rc><c>O </c><c>   1</c></rc>
    <rc><c>O </c><c>   1</c></rc>
    <rc><c>O </c><c>   1</c></rc>
    <rc><c>O </c><c>   1</c></rc>
    <rc><c>O </c><c>   1</c></rc>
    <rc><c>O </c><c>   1</c></rc>
    <rc><c>O </c><c>   1</c></rc>
    <rc><c>O </c><c>   1</c></rc>
    <rc><c>O </c><c>   1</c></rc>
    <rc><c>O </c><c>   1</c></rc>
    <rc><c>O </c><c>   1</c></rc>
    <rc><c>O </c><c>   1</c></rc>
    <rc><c>O </c><c>   1</c></rc>
    <rc><c>O </c><c>   1</c></rc>
    <rc><c>O </c><c>   1</c></rc>
    <rc><c>O </c><c>   1</c></rc>
    <rc><c>O </c><c>   1</c></rc>
    <rc><c>O </c><c>   1</c></rc>
    <rc><c>O </c><c>   1</c></rc>
    <rc><c>O </c><c>   1</c></rc>
    <rc><c>O </c><c>   1</c></rc>
    <rc><c>O </c><c>   1</c></rc>
    <rc><c>O </c><c>   1</c></rc>
    <rc><c>O </c><c>   1</c></rc>
    <rc><c>O </c><c>   1</c></rc>
    <rc><c>O </c><c>   1</c></rc>
    <rc><c>O </c><c>   1</c></rc>
    <rc><c>O </c><c>   1</c></rc>
    <rc><c>O </c><c>   1</c></rc>
    <rc><c>O </c><c>   1</c></rc>
    <rc><c>O </c><c>   1</c></rc>
    <rc><c>O </c><c>   1</c></rc>
    <rc><c>O </c><c>   1</c></rc>
    <rc><c>O </c><c>   1</c></rc>
    <rc><c>O </c><c>   1</c></rc>
    <rc><c>O </c><c>   1</c></rc>
    <rc><c>O </c><c>   1</c></rc>
    <rc><c>O </c><c>   1</c></rc>
    <rc><c>O </c><c>   1</c></rc>
    <rc><c>O </c><c>   1</c></rc>
    <rc><c>O </c><c>   1</c></rc>
    <rc><c>Si</c><c>   2</c></rc>
    <rc><c>Si</c><c>   2</c></rc>
    <rc><c>Si</c><c>   2</c></rc>
    <rc><c>Si</c><c>   2</c></rc>
    <rc><c>Si</c><c>   2</c></rc>
    <rc><c>Si</c><c>   2</c></rc>
    <rc><c>Si</c><c>   2</c></rc>
    <rc><c>Si</c><c>   2</c></rc>
    <rc><c>Si</c><c>   2</c></rc>
    <rc><c>Si</c><c>   2</c></rc>
    <rc><c>Si</c><c>   2</c></rc>
    <rc><c>Si</c><c>   2</c></rc>
    <rc><c>Si</c><c>   2</c></rc>
    <rc><c>Si</c><c>   2</c></rc>
    <rc><c>Si</c><c>   2</c></rc>
    <rc><c>Si</c><c>   2</c></rc>
    <rc><c>Si</c><c>   2</c></rc>
    <rc><c>Si</c><c>   2</c></rc>
    <rc><c>Si</c><c>   2</c></rc>
    <rc><c>Si</c><c>   2</c></rc>
    <rc><c>Si</c><c>   2</c></rc>
    <rc><c>Si</c><c>   2</c></rc>
    <rc><c>Si</c><c>   2</c></rc>
    <rc><c>Si</c><c>   2</c></rc>
    <rc><c>Si</c><c>   2</c></rc>
    <rc><c>Si</c><c>   2</c></rc>
    <rc><c>Si</c><c>   2</c></rc>
    <rc><c>Si</c><c>   2</c></rc>
    <rc><c>Si</c><c>   2</c></rc>
    <rc><c>Si</c><c>   2</c></rc>
    <rc><c>Si</c><c>   2</c></rc>
    <rc><c>Si</c><c>   2</c></rc>
    <rc><c>Si</c><c>   2</c></rc>
    <rc><c>Si</c><c>   2</c></rc>
    <rc><c>Si</c><c>   2</c></rc>
    <rc><c>Si</c><c>   2</c></rc>
    <rc><c>Si</c><c>   2</c></rc>
    <rc><c>Si</c><c>   2</c></rc>
    <rc><c>Si</c><c>   2</c></rc>
    <rc><c>Si</c><c>   2</c></rc>
    <rc><c>Si</c><c>   2</c></rc>
    <rc><c>Si</c><c>   2</c></rc>
    <rc><c>Si</c><c>   2</c></rc>
    <rc><c>Si</c><c>   2</c></rc>
    <rc><c>Si</c><c>   2</c></rc>
    <rc><c>Si</c><c>   2</c></rc>
    <rc><c>Si</c><c>   2</c></rc>
    <rc><c>Si</c><c>   2</c></rc>
    <rc><c>Si</c><c>   2</c></rc>
    <rc><c>Si</c><c>   2</c></rc>
    <rc><c>Si</c><c>   2</c></rc>
    <rc><c>Si</c><c>   2</c></rc>
    <rc><c>Si</c><c>   2</c></rc>
    <rc><c>Si</c><c>   2</c></rc>
    <rc><c>Si</c><c>   2</c></rc>
    <rc><c>Si</c><c>   2</c></rc>
    <rc><c>Si</c><c>   2</c></rc>
    <rc><c>Si</c><c>   2</c></rc>
    <rc><c>Si</c><c>   2</c></rc>
    <rc><c>Si</c><c>   2</c></rc>
    <rc><c>Si</c><c>   2</c></rc>
    <rc><c>Si</c><c>   2</c></rc>
    <rc><c>Si</c><c>   2</c></rc>
    <rc><c>Si</c><c>   2</c></rc>
    <rc><c>Si</c><c>   2</c></rc>
    <rc><c>Si</c><c>   2</c></rc>
    <rc><c>Si</c><c>   2</c></rc>
    <rc><c>Si</c><c>   2</c></rc>
    <rc><c>Si</c><c>   2</c></rc>
    <rc><c>Si</c><c>   2</c></rc>
    <rc><c>Si</c><c>   2</c></rc>
    <rc><c>Si</c><c>   2</c></rc>
    <rc><c>Si</c><c>   2</c></rc>
    <rc><c>Si</c><c>   2</c></rc>
    <rc><c>Si</c><c>   2</c></rc>
    <rc><c>Si</c><c>   2</c></rc>
    <rc><c>Si</c><c>   2</c></rc>
    <rc><c>Si</c><c>   2</c></rc>
    <rc><c>Si</c><c>   2</c></rc>
    <rc><c>Si</c><c>   2</c></rc>
    <rc><c>Si</c><c>   2</c></rc>
   </set>
  </array>
  <array name="atomtypes" >
   <dimension dim="1">type</dimension>
   <field type="int">atomspertype</field>
   <field type="string">element</field>
   <field>mass</field>
   <field>valence</field>
   <field type="string">pseudopotential</field>
   <set>
    <rc><c> 162</c><c>O </c><c>     16.00000000</c><c>      6.00000000</c><c>  PAW_PBE O 08Apr2002                   </c></rc>
    <rc><c>  81</c><c>Si</c><c>     28.08500000</c><c>      4.00000000</c><c>  PAW_PBE Si 05Jan2001                  </c></rc>
   </set>
  </array>
 </atominfo>
 <structure name="initialpos" >
  <crystal>
   <varray name="basis" >
    <v>      14.99190030       0.00000000       0.00000000 </v>
    <v>      -7.49594983      12.98336669       0.00000000 </v>
    <v>       0.00000030       0.00000052      16.37160030 </v>
   </varray>
   <i name="volume">   3186.65568995 </i>
   <varray name="rec_basis" >
    <v>       0.06670268       0.03851081      -0.00000000 </v>
    <v>       0.00000000       0.07702162      -0.00000000 </v>
    <v>       0.00000000       0.00000000       0.06108138 </v>
   </varray>
  </crystal>
  <varray name="positions" >
   <v>       0.06921667       0.13843334       0.00000000 </v>
   <v>       0.26411666       0.06921667       0.11111111 </v>
   <v>       0.19489999       0.26411666       0.22222222 </v>
   <v>       0.26411666       0.19489999       0.00000000 </v>
   <v>       0.06921667       0.26411666       0.11111111 </v>
   <v>       0.13843334       0.06921667       0.22222222 </v>
   <v>       0.06921667       0.13843334       0.33333333 </v>
   <v>       0.26411666       0.06921667       0.44444444 </v>
   <v>       0.19489999       0.26411666       0.55555556 </v>
   <v>       0.26411666       0.19489999       0.33333333 </v>
   <v>       0.06921667       0.26411666       0.44444444 </v>
   <v>       0.13843334       0.06921667       0.55555556 </v>
   <v>       0.06921667       0.13843334       0.66666667 </v>
   <v>       0.26411666       0.06921667       0.77777778 </v>
   <v>       0.19489999       0.26411666       0.88888889 </v>
   <v>       0.26411666       0.19489999       0.66666667 </v>
   <v>       0.06921667       0.26411666       0.77777778 </v>
   <v>       0.13843334       0.06921667       0.88888889 </v>
   <v>       0.06921667       0.47176667       0.00000000 </v>
   <v>       0.26411666       0.40255000       0.11111111 </v>
   <v>       0.19489999       0.59745000       0.22222222 </v>
   <v>       0.26411666       0.52823333       0.00000000 </v>
   <v>       0.06921667       0.59745000       0.11111111 </v>
   <v>       0.13843334       0.40255000       0.22222222 </v>
   <v>       0.06921667       0.47176667       0.33333333 </v>
   <v>       0.26411666       0.40255000       0.44444444 </v>
   <v>       0.19489999       0.59745000       0.55555556 </v>
   <v>       0.26411666       0.52823333       0.33333333 </v>
   <v>       0.06921667       0.59745000       0.44444444 </v>
   <v>       0.13843334       0.40255000       0.55555556 </v>
   <v>       0.06921667       0.47176667       0.66666667 </v>
   <v>       0.26411666       0.40255000       0.77777778 </v>
   <v>       0.19489999       0.59745000       0.88888889 </v>
   <v>       0.26411666       0.52823333       0.66666667 </v>
   <v>       0.06921667       0.59745000       0.77777778 </v>
   <v>       0.13843334       0.40255000       0.88888889 </v>
   <v>       0.06921667       0.80510001       0.00000000 </v>
   <v>       0.26411666       0.73588334       0.11111111 </v>
   <v>       0.19489999       0.93078333       0.22222222 </v>
   <v>       0.26411666       0.86156666       0.00000000 </v>
   <v>       0.06921667       0.93078333       0.11111111 </v>
   <v>       0.13843334       0.73588334       0.22222222 </v>
   <v>       0.06921667       0.80510001       0.33333333 </v>
   <v>       0.26411666       0.73588334       0.44444444 </v>
   <v>       0.19489999       0.93078333       0.55555556 </v>
   <v>       0.26411666       0.86156666       0.33333333 </v>
   <v>       0.06921667       0.93078333       0.44444444 </v>
   <v>       0.13843334       0.73588334       0.55555556 </v>
   <v>       0.06921667       0.80510001       0.66666667 </v>
   <v>       0.26411666       0.73588334       0.77777778 </v>
   <v>       0.19489999       0.93078333       0.88888889 </v>
   <v>       0.26411666       0.86156666       0.66666667 </v>
   <v>       0.06921667       0.93078333       0.77777778 </v>
   <v>       0.13843334       0.73588334       0.88888889 </v>
   <v>       0.40255000       0.13843334       0.00000000 </v>
   <v>       0.59745000       0.06921667       0.11111111 </v>
   <v>       0.52823333       0.26411666       0.22222222 </v>
   <v>       0.59745000       0.19489999       0.00000000 </v>
   <v>       0.40255000       0.26411666       0.11111111 </v>
   <v>       0.47176667       0.06921667       0.22222222 </v>
   <v>       0.40255000       0.13843334       0.33333333 </v>
   <v>       0.59745000       0.06921667       0.44444444 </v>
   <v>       0.52823333       0.26411666       0.55555556 </v>
   <v>       0.59745000       0.19489999       0.33333333 </v>
   <v>       0.40255000       0.26411666       0.44444444 </v>
   <v>       0.47176667       0.06921667       0.55555556 </v>
   <v>       0.40255000       0.13843334       0.66666667 </v>
   <v>       0.59745000       0.06921667       0.77777778 </v>
   <v>       0.52823333       0.26411666       0.88888889 </v>
   <v>       0.59745000       0.19489999       0.66666667 </v>
   <v>       0.40255000       0.26411666       0.77777778 </v>
   <v>       0.47176667       0.06921667       0.88888889 </v>
   <v>       0.40255000       0.47176667       0.00000000 </v>
   <v>       0.59745000       0.40255000       0.11111111 </v>
   <v>       0.52823333       0.59745000       0.22222222 </v>
   <v>       0.59745000       0.52823333       0.00000000 </v>
   <v>       0.40255000       0.59745000       0.11111111 </v>
   <v>       0.47176667       0.40255000       0.22222222 </v>
   <v>       0.40255000       0.47176667       0.33333333 </v>
   <v>       0.59745000       0.40255000       0.44444444 </v>
   <v>       0.52823333       0.59745000       0.55555556 </v>
   <v>       0.59745000       0.52823333       0.33333333 </v>
   <v>       0.40255000       0.59745000       0.44444444 </v>
   <v>       0.47176667       0.40255000       0.55555556 </v>
   <v>       0.40255000       0.47176667       0.66666667 </v>
   <v>       0.59745000       0.40255000       0.77777778 </v>
   <v>       0.52823333       0.59745000       0.88888889 </v>
   <v>       0.59745000       0.52823333       0.66666667 </v>
   <v>       0.40255000       0.59745000       0.77777778 </v>
   <v>       0.47176667       0.40255000       0.88888889 </v>
   <v>       0.40255000       0.80510001       0.00000000 </v>
   <v>       0.59745000       0.73588334       0.11111111 </v>
   <v>       0.52823333       0.93078333       0.22222222 </v>
   <v>       0.59745000       0.86156666       0.00000000 </v>
   <v>       0.40255000       0.93078333       0.11111111 </v>
   <v>       0.47176667       0.73588334       0.22222222 </v>
   <v>       0.40255000       0.80510001       0.33333333 </v>
   <v>       0.59745000       0.73588334       0.44444444 </v>
   <v>       0.52823333       0.93078333       0.55555556 </v>
   <v>       0.59745000       0.86156666       0.33333333 </v>
   <v>       0.40255000       0.93078333       0.44444444 </v>
   <v>       0.47176667       0.73588334       0.55555556 </v>
   <v>       0.40255000       0.80510001       0.66666667 </v>
   <v>       0.59745000       0.73588334       0.77777778 </v>
   <v>       0.52823333       0.93078333       0.88888889 </v>
   <v>       0.59745000       0.86156666       0.66666667 </v>
   <v>       0.40255000       0.93078333       0.77777778 </v>
   <v>       0.47176667       0.73588334       0.88888889 </v>
   <v>       0.73588334       0.13843334       0.00000000 </v>
   <v>       0.93078333       0.06921667       0.11111111 </v>
   <v>       0.86156666       0.26411666       0.22222222 </v>
   <v>       0.93078333       0.19489999       0.00000000 </v>
   <v>       0.73588334       0.26411666       0.11111111 </v>
   <v>       0.80510001       0.06921667       0.22222222 </v>
   <v>       0.73588334       0.13843334       0.33333333 </v>
   <v>       0.93078333       0.06921667       0.44444444 </v>
   <v>       0.86156666       0.26411666       0.55555556 </v>
   <v>       0.93078333       0.19489999       0.33333333 </v>
   <v>       0.73588334       0.26411666       0.44444444 </v>
   <v>       0.80510001       0.06921667       0.55555556 </v>
   <v>       0.73588334       0.13843334       0.66666667 </v>
   <v>       0.93078333       0.06921667       0.77777778 </v>
   <v>       0.86156666       0.26411666       0.88888889 </v>
   <v>       0.93078333       0.19489999       0.66666667 </v>
   <v>       0.73588334       0.26411666       0.77777778 </v>
   <v>       0.80510001       0.06921667       0.88888889 </v>
   <v>       0.73588334       0.47176667       0.00000000 </v>
   <v>       0.93078333       0.40255000       0.11111111 </v>
   <v>       0.86156666       0.59745000       0.22222222 </v>
   <v>       0.93078333       0.52823333       0.00000000 </v>
   <v>       0.73588334       0.59745000       0.11111111 </v>
   <v>       0.80510001       0.40255000       0.22222222 </v>
   <v>       0.73588334       0.47176667       0.33333333 </v>
   <v>       0.93078333       0.40255000       0.44444444 </v>
   <v>       0.86156666       0.59745000       0.55555556 </v>
   <v>       0.93078333       0.52823333       0.33333333 </v>
   <v>       0.73588334       0.59745000       0.44444444 </v>
   <v>       0.80510001       0.40255000       0.55555556 </v>
   <v>       0.73588334       0.47176667       0.66666667 </v>
   <v>       0.93078333       0.40255000       0.77777778 </v>
   <v>       0.86156666       0.59745000       0.88888889 </v>
   <v>       0.93078333       0.52823333       0.66666667 </v>
   <v>       0.73588334       0.59745000       0.77777778 </v>
   <v>       0.80510001       0.40255000       0.88888889 </v>
   <v>       0.73588334       0.80510001       0.00000000 </v>
   <v>       0.93078333       0.73588334       0.11111111 </v>
   <v>       0.86156666       0.93078333       0.22222222 </v>
   <v>       0.93078333       0.86156666       0.00000000 </v>
   <v>       0.73588334       0.93078333       0.11111111 </v>
   <v>       0.80510001       0.73588334       0.22222222 </v>
   <v>       0.73588334       0.80510001       0.33333333 </v>
   <v>       0.93078333       0.73588334       0.44444444 </v>
   <v>       0.86156666       0.93078333       0.55555556 </v>
   <v>       0.93078333       0.86156666       0.33333333 </v>
   <v>       0.73588334       0.93078333       0.44444444 </v>
   <v>       0.80510001       0.73588334       0.55555556 </v>
   <v>       0.73588334       0.80510001       0.66666667 </v>
   <v>       0.93078333       0.73588334       0.77777778 </v>
   <v>       0.86156666       0.93078333       0.88888889 </v>
   <v>       0.93078333       0.86156666       0.66666667 </v>
   <v>       0.73588334       0.93078333       0.77777778 </v>
   <v>       0.80510001       0.73588334       0.88888889 </v>
   <v>       0.16666667       0.00000000       0.16666667 </v>
   <v>       0.16666667       0.16666667       0.27777778 </v>
   <v>       0.00000000       0.16666667       0.05555556 </v>
   <v>       0.16666667       0.00000000       0.50000000 </v>
   <v>       0.16666667       0.16666667       0.61111111 </v>
   <v>       0.00000000       0.16666667       0.38888889 </v>
   <v>       0.16666667       0.00000000       0.83333333 </v>
   <v>       0.16666667       0.16666667       0.94444444 </v>
   <v>       0.00000000       0.16666667       0.72222222 </v>
   <v>       0.16666667       0.33333333       0.16666667 </v>
   <v>       0.16666667       0.50000000       0.27777778 </v>
   <v>       0.00000000       0.50000000       0.05555556 </v>
   <v>       0.16666667       0.33333333       0.50000000 </v>
   <v>       0.16666667       0.50000000       0.61111111 </v>
   <v>       0.00000000       0.50000000       0.38888889 </v>
   <v>       0.16666667       0.33333333       0.83333333 </v>
   <v>       0.16666667       0.50000000       0.94444444 </v>
   <v>       0.00000000       0.50000000       0.72222222 </v>
   <v>       0.16666667       0.66666667       0.16666667 </v>
   <v>       0.16666667       0.83333333       0.27777778 </v>
   <v>       0.00000000       0.83333333       0.05555556 </v>
   <v>       0.16666667       0.66666667       0.50000000 </v>
   <v>       0.16666667       0.83333333       0.61111111 </v>
   <v>       0.00000000       0.83333333       0.38888889 </v>
   <v>       0.16666667       0.66666667       0.83333333 </v>
   <v>       0.16666667       0.83333333       0.94444444 </v>
   <v>       0.00000000       0.83333333       0.72222222 </v>
   <v>       0.50000000       0.00000000       0.16666667 </v>
   <v>       0.50000000       0.16666667       0.27777778 </v>
   <v>       0.33333333       0.16666667       0.05555556 </v>
   <v>       0.50000000       0.00000000       0.50000000 </v>
   <v>       0.50000000       0.16666667       0.61111111 </v>
   <v>       0.33333333       0.16666667       0.38888889 </v>
   <v>       0.50000000       0.00000000       0.83333333 </v>
   <v>       0.50000000       0.16666667       0.94444444 </v>
   <v>       0.33333333       0.16666667       0.72222222 </v>
   <v>       0.50000000       0.33333333       0.16666667 </v>
   <v>       0.50000000       0.50000000       0.27777778 </v>
   <v>       0.33333333       0.50000000       0.05555556 </v>
   <v>       0.50000000       0.33333333       0.50000000 </v>
   <v>       0.50000000       0.50000000       0.61111111 </v>
   <v>       0.33333333       0.50000000       0.38888889 </v>
   <v>       0.50000000       0.33333333       0.83333333 </v>
   <v>       0.50000000       0.50000000       0.94444444 </v>
   <v>       0.33333333       0.50000000       0.72222222 </v>
   <v>       0.50000000       0.66666667       0.16666667 </v>
   <v>       0.50000000       0.83333333       0.27777778 </v>
   <v>       0.33333333       0.83333333       0.05555556 </v>
   <v>       0.50000000       0.66666667       0.50000000 </v>
   <v>       0.50000000       0.83333333       0.61111111 </v>
   <v>       0.33333333       0.83333333       0.38888889 </v>
   <v>       0.50000000       0.66666667       0.83333333 </v>
   <v>       0.50000000       0.83333333       0.94444444 </v>
   <v>       0.33333333       0.83333333       0.72222222 </v>
   <v>       0.83333333       0.00000000       0.16666667 </v>
   <v>       0.83333333       0.16666667       0.27777778 </v>
   <v>       0.66666667       0.16666667       0.05555556 </v>
   <v>       0.83333333       0.00000000       0.50000000 </v>
   <v>       0.83333333       0.16666667       0.61111111 </v>
   <v>       0.66666667       0.16666667       0.38888889 </v>
   <v>       0.83333333       0.00000000       0.83333333 </v>
   <v>       0.83333333       0.16666667       0.94444444 </v>
   <v>       0.66666667       0.16666667       0.72222222 </v>
   <v>       0.83333333       0.33333333       0.16666667 </v>
   <v>       0.83333333       0.50000000       0.27777778 </v>
   <v>       0.66666667       0.50000000       0.05555556 </v>
   <v>       0.83333333       0.33333333       0.50000000 </v>
   <v>       0.83333333       0.50000000       0.61111111 </v>
   <v>       0.66666667       0.50000000       0.38888889 </v>
   <v>       0.83333333       0.33333333       0.83333333 </v>
   <v>       0.83333333       0.50000000       0.94444444 </v>
   <v>       0.66666667       0.50000000       0.72222222 </v>
   <v>       0.83333333       0.66666667       0.16666667 </v>
   <v>       0.83333333       0.83333333       0.27777778 </v>
   <v>       0.66666667       0.83333333       0.05555556 </v>
   <v>       0.83333333       0.66666667       0.50000000 </v>
   <v>       0.83333333       0.83333333       0.61111111 </v>
   <v>       0.66666667       0.83333333       0.38888889 </v>
   <v>       0.83333333       0.66666667       0.83333333 </v>
   <v>       0.83333333       0.83333333       0.94444444 </v>
   <v>       0.66666667       0.83333333       0.72222222 </v>
  </varray>
 </structure>
 <calculation>
  <scstep>
   <time name="dav">  156.21  156.25</time>
   <time name="total">  156.29  156.35</time>
   <energy>
    <i name="alphaZ">   1803.06568644 </i>
    <i name="ewald"> -48244.28156214 </i>
    <i name="hartreedc"> -27084.92649043 </i>
    <i name="XCdc">   3831.99201685 </i>
    <i name="pawpsdc">  63279.04302504 </i>
    <i name="pawaedc"> -62145.37184510 </i>
    <i name="eentropy">     -0.04641562 </i>
    <i name="bandstr">  -1603.69793906 </i>
    <i name="atom">  78374.96320226 </i>
    <i name="e_fr_energy">   8210.73967823 </i>
    <i name="e_wo_entrp">   8210.78609385 </i>
    <i name="e_0_energy">   8210.76288604 </i>
   </energy>
  </scstep>
  <scstep>
   <time name="dav">  175.40  175.46</time>
   <time name="total">  175.42  175.48</time>
   <energy>
    <i name="e_fr_energy">  -1473.36561864 </i>
    <i name="e_wo_entrp">  -1473.36561864 </i>
    <i name="e_0_energy">  -1473.36561864 </i>
   </energy>
  </scstep>
  <scstep>
   <time name="dav">  175.27  175.33</time>
   <time name="total">  175.29  175.35</time>
   <energy>
    <i name="e_fr_energy">  -2174.03795065 </i>
    <i name="e_wo_entrp">  -2174.03795065 </i>
    <i name="e_0_energy">  -2174.03795065 </i>
   </energy>
  </scstep>
  <scstep>
   <time name="dav">  176.65  176.69</time>
   <time name="total">  176.66  176.71</time>
   <energy>
    <i name="e_fr_energy">  -2186.35601142 </i>
    <i name="e_wo_entrp">  -2186.35601142 </i>
    <i name="e_0_energy">  -2186.35601142 </i>
   </energy>
  </scstep>
  <scstep>
   <time name="dav">  174.88  174.92</time>
   <time name="total">  178.30  178.34</time>
   <energy>
    <i name="e_fr_energy">  -2186.64799124 </i>
    <i name="e_wo_entrp">  -2186.64799124 </i>
    <i name="e_0_energy">  -2186.64799124 </i>
   </energy>
  </scstep>
  <scstep>
   <time name="dav">  169.10  169.13</time>
   <time name="total">  172.53  172.57</time>
   <energy>
    <i name="e_fr_energy">  -1917.19331106 </i>
    <i name="e_wo_entrp">  -1917.19331106 </i>
    <i name="e_0_energy">  -1917.19331106 </i>
   </energy>
  </scstep>
  <scstep>
   <time name="dav">  187.12  187.18</time>
   <time name="total">  190.55  190.62</time>
   <energy>
    <i name="e_fr_energy">  -1915.60926175 </i>
    <i name="e_wo_entrp">  -1915.60926175 </i>
    <i name="e_0_energy">  -1915.60926175 </i>
   </energy>
  </scstep>
  <scstep>
   <time name="dav">  174.77  174.82</time>
   <time name="total">  178.20  178.25</time>
   <energy>
    <i name="e_fr_energy">  -1915.29762143 </i>
    <i name="e_wo_entrp">  -1915.29762143 </i>
    <i name="e_0_energy">  -1915.29762143 </i>
   </energy>
  </scstep>
  <scstep>
   <time name="dav">  169.05  169.09</time>
   <time name="total">  172.42  172.47</time>
   <energy>
    <i name="e_fr_energy">  -1915.53491727 </i>
    <i name="e_wo_entrp">  -1915.53491727 </i>
    <i name="e_0_energy">  -1915.53491727 </i>
   </energy>
  </scstep>
  <scstep>
   <time name="dav">  171.43  171.47</time>
   <time name="total">  174.83  174.87</time>
   <energy>
    <i name="e_fr_energy">  -1915.59011887 </i>
    <i name="e_wo_entrp">  -1915.59011887 </i>
    <i name="e_0_energy">  -1915.59011887 </i>
   </energy>
  </scstep>
  <scstep>
   <time name="dav">  173.28  173.30</time>
   <time name="total">  176.66  176.69</time>
   <energy>
    <i name="e_fr_energy">  -1915.59279773 </i>
    <i name="e_wo_entrp">  -1915.59279773 </i>
    <i name="e_0_energy">  -1915.59279773 </i>
   </energy>
  </scstep>
  <scstep>
   <time name="dav">  175.76  175.78</time>
   <time name="total">  179.16  179.18</time>
   <energy>
    <i name="e_fr_energy">  -1915.59305115 </i>
    <i name="e_wo_entrp">  -1915.59305115 </i>
    <i name="e_0_energy">  -1915.59305115 </i>
   </energy>
  </scstep>
  <scstep>
   <time name="dav">  170.57  170.63</time>
   <time name="total">  173.97  174.03</time>
   <energy>
    <i name="e_fr_energy">  -1915.59317790 </i>
    <i name="e_wo_entrp">  -1915.59317790 </i>
    <i name="e_0_energy">  -1915.59317790 </i>
   </energy>
  </scstep>
  <scstep>
   <time name="dav">  132.12  132.16</time>
   <time name="total">  135.55  135.60</time>
   <energy>
    <i name="e_fr_energy">  -1915.59319111 </i>
    <i name="e_wo_entrp">  -1915.59319111 </i>
    <i name="e_0_energy">  -1915.59319111 </i>
   </energy>
  </scstep>
  <scstep>
   <time name="dav">  123.59  123.64</time>
   <time name="total">  123.67  123.71</time>
   <energy>
    <i name="alphaZ">   1803.06568644 </i>
    <i name="ewald"> -48244.28156214 </i>
    <i name="hartreedc"> -30960.27391910 </i>
    <i name="XCdc">   4088.83082099 </i>
    <i name="pawpsdc"> 243928.43951102 </i>
    <i name="pawaedc">-242860.76862472 </i>
    <i name="eentropy">     -0.00000000 </i>
    <i name="bandstr">  -8045.56830534 </i>
    <i name="atom">  78374.96320226 </i>
    <i name="e_fr_energy">  -1915.59319058 </i>
    <i name="e_wo_entrp">  -1915.59319058 </i>
    <i name="e_0_energy">  -1915.59319058 </i>
   </energy>
  </scstep>
  <structure>
   <crystal>
    <varray name="basis" >
     <v>      14.99190030       0.00000000       0.00000000 </v>
     <v>      -7.49594983      12.98336669       0.00000000 </v>
     <v>       0.00000030       0.00000052      16.37160030 </v>
    </varray>
    <i name="volume">   3186.65568995 </i>
    <varray name="rec_basis" >
     <v>       0.06670268       0.03851081      -0.00000000 </v>
     <v>       0.00000000       0.07702162      -0.00000000 </v>
     <v>       0.00000000       0.00000000       0.06108138 </v>
    </varray>
   </crystal>
   <varray name="positions" >
    <v>       0.06921667       0.13843334       0.00000000 </v>
    <v>       0.26411666       0.06921667       0.11111111 </v>
    <v>       0.19489999       0.26411666       0.22222222 </v>
    <v>       0.26411666       0.19489999       0.00000000 </v>
    <v>       0.06921667       0.26411666       0.11111111 </v>
    <v>       0.13843334       0.06921667       0.22222222 </v>
    <v>       0.06921667       0.13843334       0.33333333 </v>
    <v>       0.26411666       0.06921667       0.44444444 </v>
    <v>       0.19489999       0.26411666       0.55555556 </v>
    <v>       0.26411666       0.19489999       0.33333333 </v>
    <v>       0.06921667       0.26411666       0.44444444 </v>
    <v>       0.13843334       0.06921667       0.55555556 </v>
    <v>       0.06921667       0.13843334       0.66666667 </v>
    <v>       0.26411666       0.06921667       0.77777778 </v>
    <v>       0.19489999       0.26411666       0.88888889 </v>
    <v>       0.26411666       0.19489999       0.66666667 </v>
    <v>       0.06921667       0.26411666       0.77777778 </v>
    <v>       0.13843334       0.06921667       0.88888889 </v>
    <v>       0.06921667       0.47176667       0.00000000 </v>
    <v>       0.26411666       0.40255000       0.11111111 </v>
    <v>       0.19489999       0.59745000       0.22222222 </v>
    <v>       0.26411666       0.52823333       0.00000000 </v>
    <v>       0.06921667       0.59745000       0.11111111 </v>
    <v>       0.13843334       0.40255000       0.22222222 </v>
    <v>       0.06921667       0.47176667       0.33333333 </v>
    <v>       0.26411666       0.40255000       0.44444444 </v>
    <v>       0.19489999       0.59745000       0.55555556 </v>
    <v>       0.26411666       0.52823333       0.33333333 </v>
    <v>       0.06921667       0.59745000       0.44444444 </v>
    <v>       0.13843334       0.40255000       0.55555556 </v>
    <v>       0.06921667       0.47176667       0.66666667 </v>
    <v>       0.26411666       0.40255000       0.77777778 </v>
    <v>       0.19489999       0.59745000       0.88888889 </v>
    <v>       0.26411666       0.52823333       0.66666667 </v>
    <v>       0.06921667       0.59745000       0.77777778 </v>
    <v>       0.13843334       0.40255000       0.88888889 </v>
    <v>       0.06921667       0.80510001       0.00000000 </v>
    <v>       0.26411666       0.73588334       0.11111111 </v>
    <v>       0.19489999       0.93078333       0.22222222 </v>
    <v>       0.26411666       0.86156666       0.00000000 </v>
    <v>       0.06921667       0.93078333       0.11111111 </v>
    <v>       0.13843334       0.73588334       0.22222222 </v>
    <v>       0.06921667       0.80510001       0.33333333 </v>
    <v>       0.26411666       0.73588334       0.44444444 </v>
    <v>       0.19489999       0.93078333       0.55555556 </v>
    <v>       0.26411666       0.86156666       0.33333333 </v>
    <v>       0.06921667       0.93078333       0.44444444 </v>
    <v>       0.13843334       0.73588334       0.55555556 </v>
    <v>       0.06921667       0.80510001       0.66666667 </v>
    <v>       0.26411666       0.73588334       0.77777778 </v>
    <v>       0.19489999       0.93078333       0.88888889 </v>
    <v>       0.26411666       0.86156666       0.66666667 </v>
    <v>       0.06921667       0.93078333       0.77777778 </v>
    <v>       0.13843334       0.73588334       0.88888889 </v>
    <v>       0.40255000       0.13843334       0.00000000 </v>
    <v>       0.59745000       0.06921667       0.11111111 </v>
    <v>       0.52823333       0.26411666       0.22222222 </v>
    <v>       0.59745000       0.19489999       0.00000000 </v>
    <v>       0.40255000       0.26411666       0.11111111 </v>
    <v>       0.47176667       0.06921667       0.22222222 </v>
    <v>       0.40255000       0.13843334       0.33333333 </v>
    <v>       0.59745000       0.06921667       0.44444444 </v>
    <v>       0.52823333       0.26411666       0.55555556 </v>
    <v>       0.59745000       0.19489999       0.33333333 </v>
    <v>       0.40255000       0.26411666       0.44444444 </v>
    <v>       0.47176667       0.06921667       0.55555556 </v>
    <v>       0.40255000       0.13843334       0.66666667 </v>
    <v>       0.59745000       0.06921667       0.77777778 </v>
    <v>       0.52823333       0.26411666       0.88888889 </v>
    <v>       0.59745000       0.19489999       0.66666667 </v>
    <v>       0.40255000       0.26411666       0.77777778 </v>
    <v>       0.47176667       0.06921667       0.88888889 </v>
    <v>       0.40255000       0.47176667       0.00000000 </v>
    <v>       0.59745000       0.40255000       0.11111111 </v>
    <v>       0.52823333       0.59745000       0.22222222 </v>
    <v>       0.59745000       0.52823333       0.00000000 </v>
    <v>       0.40255000       0.59745000       0.11111111 </v>
    <v>       0.47176667       0.40255000       0.22222222 </v>
    <v>       0.40255000       0.47176667       0.33333333 </v>
    <v>       0.59745000       0.40255000       0.44444444 </v>
    <v>       0.52823333       0.59745000       0.55555556 </v>
    <v>       0.59745000       0.52823333       0.33333333 </v>
    <v>       0.40255000       0.59745000       0.44444444 </v>
    <v>       0.47176667       0.40255000       0.55555556 </v>
    <v>       0.40255000       0.47176667       0.66666667 </v>
    <v>       0.59745000       0.40255000       0.77777778 </v>
    <v>       0.52823333       0.59745000       0.88888889 </v>
    <v>       0.59745000       0.52823333       0.66666667 </v>
    <v>       0.40255000       0.59745000       0.77777778 </v>
    <v>       0.47176667       0.40255000       0.88888889 </v>
    <v>       0.40255000       0.80510001       0.00000000 </v>
    <v>       0.59745000       0.73588334       0.11111111 </v>
    <v>       0.52823333       0.93078333       0.22222222 </v>
    <v>       0.59745000       0.86156666       0.00000000 </v>
    <v>       0.40255000       0.93078333       0.11111111 </v>
    <v>       0.47176667       0.73588334       0.22222222 </v>
    <v>       0.40255000       0.80510001       0.33333333 </v>
    <v>       0.59745000       0.73588334       0.44444444 </v>
    <v>       0.52823333       0.93078333       0.55555556 </v>
    <v>       0.59745000       0.86156666       0.33333333 </v>
    <v>       0.40255000       0.93078333       0.44444444 </v>
    <v>       0.47176667       0.73588334       0.55555556 </v>
    <v>       0.40255000       0.80510001       0.66666667 </v>
    <v>       0.59745000       0.73588334       0.77777778 </v>
    <v>       0.52823333       0.93078333       0.88888889 </v>
    <v>       0.59745000       0.86156666       0.66666667 </v>
    <v>       0.40255000       0.93078333       0.77777778 </v>
    <v>       0.47176667       0.73588334       0.88888889 </v>
    <v>       0.73588334       0.13843334       0.00000000 </v>
    <v>       0.93078333       0.06921667       0.11111111 </v>
    <v>       0.86156666       0.26411666       0.22222222 </v>
    <v>       0.93078333       0.19489999       0.00000000 </v>
    <v>       0.73588334       0.26411666       0.11111111 </v>
    <v>       0.80510001       0.06921667       0.22222222 </v>
    <v>       0.73588334       0.13843334       0.33333333 </v>
    <v>       0.93078333       0.06921667       0.44444444 </v>
    <v>       0.86156666       0.26411666       0.55555556 </v>
    <v>       0.93078333       0.19489999       0.33333333 </v>
    <v>       0.73588334       0.26411666       0.44444444 </v>
    <v>       0.80510001       0.06921667       0.55555556 </v>
    <v>       0.73588334       0.13843334       0.66666667 </v>
    <v>       0.93078333       0.06921667       0.77777778 </v>
    <v>       0.86156666       0.26411666       0.88888889 </v>
    <v>       0.93078333       0.19489999       0.66666667 </v>
    <v>       0.73588334       0.26411666       0.77777778 </v>
    <v>       0.80510001       0.06921667       0.88888889 </v>
    <v>       0.73588334       0.47176667       0.00000000 </v>
    <v>       0.93078333       0.40255000       0.11111111 </v>
    <v>       0.86156666       0.59745000       0.22222222 </v>
    <v>       0.93078333       0.52823333       0.00000000 </v>
    <v>       0.73588334       0.59745000       0.11111111 </v>
    <v>       0.80510001       0.40255000       0.22222222 </v>
    <v>       0.73588334       0.47176667       0.33333333 </v>
    <v>       0.93078333       0.40255000       0.44444444 </v>
    <v>       0.86156666       0.59745000       0.55555556 </v>
    <v>       0.93078333       0.52823333       0.33333333 </v>
    <v>       0.73588334       0.59745000       0.44444444 </v>
    <v>       0.80510001       0.40255000       0.55555556 </v>
    <v>       0.73588334       0.47176667       0.66666667 </v>
    <v>       0.93078333       0.40255000       0.77777778 </v>
    <v>       0.86156666       0.59745000       0.88888889 </v>
    <v>       0.93078333       0.52823333       0.66666667 </v>
    <v>       0.73588334       0.59745000       0.77777778 </v>
    <v>       0.80510001       0.40255000       0.88888889 </v>
    <v>       0.73588334       0.80510001       0.00000000 </v>
    <v>       0.93078333       0.73588334       0.11111111 </v>
    <v>       0.86156666       0.93078333       0.22222222 </v>
    <v>       0.93078333       0.86156666       0.00000000 </v>
    <v>       0.73588334       0.93078333       0.11111111 </v>
    <v>       0.80510001       0.73588334       0.22222222 </v>
    <v>       0.73588334       0.80510001       0.33333333 </v>
    <v>       0.93078333       0.73588334       0.44444444 </v>
    <v>       0.86156666       0.93078333       0.55555556 </v>
    <v>       0.93078333       0.86156666       0.33333333 </v>
    <v>       0.73588334       0.93078333       0.44444444 </v>
    <v>       0.80510001       0.73588334       0.55555556 </v>
    <v>       0.73588334       0.80510001       0.66666667 </v>
    <v>       0.93078333       0.73588334       0.77777778 </v>
    <v>       0.86156666       0.93078333       0.88888889 </v>
    <v>       0.93078333       0.86156666       0.66666667 </v>
    <v>       0.73588334       0.93078333       0.77777778 </v>
    <v>       0.80510001       0.73588334       0.88888889 </v>
    <v>       0.16666667       0.00000000       0.16666667 </v>
    <v>       0.16666667       0.16666667       0.27777778 </v>
    <v>       0.00000000       0.16666667       0.05555556 </v>
    <v>       0.16666667       0.00000000       0.50000000 </v>
    <v>       0.16666667       0.16666667       0.61111111 </v>
    <v>       0.00000000       0.16666667       0.38888889 </v>
    <v>       0.16666667       0.00000000       0.83333333 </v>
    <v>       0.16666667       0.16666667       0.94444444 </v>
    <v>       0.00000000       0.16666667       0.72222222 </v>
    <v>       0.16666667       0.33333333       0.16666667 </v>
    <v>       0.16666667       0.50000000       0.27777778 </v>
    <v>       0.00000000       0.50000000       0.05555556 </v>
    <v>       0.16666667       0.33333333       0.50000000 </v>
    <v>       0.16666667       0.50000000       0.61111111 </v>
    <v>       0.00000000       0.50000000       0.38888889 </v>
    <v>       0.16666667       0.33333333       0.83333333 </v>
    <v>       0.16666667       0.50000000       0.94444444 </v>
    <v>       0.00000000       0.50000000       0.72222222 </v>
    <v>       0.16666667       0.66666667       0.16666667 </v>
    <v>       0.16666667       0.83333333       0.27777778 </v>
    <v>       0.00000000       0.83333333       0.05555556 </v>
    <v>       0.16666667       0.66666667       0.50000000 </v>
    <v>       0.16666667       0.83333333       0.61111111 </v>
    <v>       0.00000000       0.83333333       0.38888889 </v>
    <v>       0.16666667       0.66666667       0.83333333 </v>
    <v>       0.16666667       0.83333333       0.94444444 </v>
    <v>       0.00000000       0.83333333       0.72222222 </v>
    <v>       0.50000000       0.00000000       0.16666667 </v>
    <v>       0.50000000       0.16666667       0.27777778 </v>
    <v>       0.33333333       0.16666667       0.05555556 </v>
    <v>       0.50000000       0.00000000       0.50000000 </v>
    <v>       0.50000000       0.16666667       0.61111111 </v>
    <v>       0.33333333       0.16666667       0.38888889 </v>
    <v>       0.50000000       0.00000000       0.83333333 </v>
    <v>       0.50000000       0.16666667       0.94444444 </v>
    <v>       0.33333333       0.16666667       0.72222222 </v>
    <v>       0.50000000       0.33333333       0.16666667 </v>
    <v>       0.50000000       0.50000000       0.27777778 </v>
    <v>       0.33333333       0.50000000       0.05555556 </v>
    <v>       0.50000000       0.33333333       0.50000000 </v>
    <v>       0.50000000       0.50000000       0.61111111 </v>
    <v>       0.33333333       0.50000000       0.38888889 </v>
    <v>       0.50000000       0.33333333       0.83333333 </v>
    <v>       0.50000000       0.50000000       0.94444444 </v>
    <v>       0.33333333       0.50000000       0.72222222 </v>
    <v>       0.50000000       0.66666667       0.16666667 </v>
    <v>       0.50000000       0.83333333       0.27777778 </v>
    <v>       0.33333333       0.83333333       0.05555556 </v>
    <v>       0.50000000       0.66666667       0.50000000 </v>
    <v>       0.50000000       0.83333333       0.61111111 </v>
    <v>       0.33333333       0.83333333       0.38888889 </v>
    <v>       0.50000000       0.66666667       0.83333333 </v>
    <v>       0.50000000       0.83333333       0.94444444 </v>
    <v>       0.33333333       0.83333333       0.72222222 </v>
    <v>       0.83333333       0.00000000       0.16666667 </v>
    <v>       0.83333333       0.16666667       0.27777778 </v>
    <v>       0.66666667       0.16666667       0.05555556 </v>
    <v>       0.83333333       0.00000000       0.50000000 </v>
    <v>       0.83333333       0.16666667       0.61111111 </v>
    <v>       0.66666667       0.16666667       0.38888889 </v>
    <v>       0.83333333       0.00000000       0.83333333 </v>
    <v>       0.83333333       0.16666667       0.94444444 </v>
    <v>       0.66666667       0.16666667       0.72222222 </v>
    <v>       0.83333333       0.33333333       0.16666667 </v>
    <v>       0.83333333       0.50000000       0.27777778 </v>
    <v>       0.66666667       0.50000000       0.05555556 </v>
    <v>       0.83333333       0.33333333       0.50000000 </v>
    <v>       0.83333333       0.50000000       0.61111111 </v>
    <v>       0.66666667       0.50000000       0.38888889 </v>
    <v>       0.83333333       0.33333333       0.83333333 </v>
    <v>       0.83333333       0.50000000       0.94444444 </v>
    <v>       0.66666667       0.50000000       0.72222222 </v>
    <v>       0.83333333       0.66666667       0.16666667 </v>
    <v>       0.83333333       0.83333333       0.27777778 </v>
    <v>       0.66666667       0.83333333       0.05555556 </v>
    <v>       0.83333333       0.66666667       0.50000000 </v>
    <v>       0.83333333       0.83333333       0.61111111 </v>
    <v>       0.66666667       0.83333333       0.38888889 </v>
    <v>       0.83333333       0.66666667       0.83333333 </v>
    <v>       0.83333333       0.83333333       0.94444444 </v>
    <v>       0.66666667       0.83333333       0.72222222 </v>
   </varray>
  </structure>
  <varray name="forces" >
   <v>      -0.00000001      -0.48254351       0.00000000 </v>
   <v>       0.41789492      -0.24127175      -0.00000000 </v>
   <v>       0.41789494       0.24127175       0.00000000 </v>
   <v>       0.00000001       0.48254351      -0.00000000 </v>
   <v>      -0.41789492       0.24127175       0.00000000 </v>
   <v>      -0.41789494      -0.24127175      -0.00000000 </v>
   <v>      -0.00000001      -0.48254351       0.00000000 </v>
   <v>       0.41789492      -0.24127175       0.00000000 </v>
   <v>       0.41789494       0.24127175       0.00000000 </v>
   <v>       0.00000001       0.48254351      -0.00000000 </v>
   <v>      -0.41789492       0.24127175      -0.00000000 </v>
   <v>      -0.41789494      -0.24127175       0.00000000 </v>
   <v>      -0.00000001      -0.48254351      -0.00000000 </v>
   <v>       0.41789492      -0.24127175       0.00000000 </v>
   <v>       0.41789494       0.24127175       0.00000000 </v>
   <v>       0.00000001       0.48254351      -0.00000000 </v>
   <v>      -0.41789492       0.24127175       0.00000000 </v>
   <v>      -0.41789494      -0.24127175      -0.00000000 </v>
   <v>      -0.00000001      -0.48254351      -0.00000000 </v>
   <v>       0.41789492      -0.24127175       0.00000000 </v>
   <v>       0.41789494       0.24127175       0.00000000 </v>
   <v>       0.00000001       0.48254351      -0.00000000 </v>
   <v>      -0.41789492       0.24127175       0.00000000 </v>
   <v>      -0.41789494      -0.24127175      -0.00000000 </v>
   <v>      -0.00000001      -0.48254351      -0.00000000 </v>
   <v>       0.41789492      -0.24127175       0.00000000 </v>
   <v>       0.41789494       0.24127175       0.00000000 </v>
   <v>       0.00000001       0.48254351      -0.00000000 </v>
   <v>      -0.41789492       0.24127175       0.00000000 </v>
   <v>      -0.41789494      -0.24127175      -0.00000000 </v>
   <v>      -0.00000001      -0.48254351      -0.00000000 </v>
   <v>       0.41789492      -0.24127175       0.00000000 </v>
   <v>       0.41789494       0.24127175      -0.00000000 </v>
   <v>       0.00000001       0.48254351      -0.00000000 </v>
   <v>      -0.41789492       0.24127175      -0.00000000 </v>
   <v>      -0.41789494      -0.24127175      -0.00000000 </v>
   <v>      -0.00000001      -0.48254351      -0.00000000 </v>
   <v>       0.41789492      -0.24127175       0.00000000 </v>
   <v>       0.41789494       0.24127175       0.00000000 </v>
   <v>       0.00000001       0.48254351      -0.00000000 </v>
   <v>      -0.41789492       0.24127175      -0.00000000 </v>
   <v>      -0.41789494      -0.24127175      -0.00000000 </v>
   <v>      -0.00000001      -0.48254351      -0.00000000 </v>
   <v>       0.41789492      -0.24127175       0.00000000 </v>
   <v>       0.41789494       0.24127175      -0.00000000 </v>
   <v>       0.00000001       0.48254351      -0.00000000 </v>
   <v>      -0.41789492       0.24127175       0.00000000 </v>
   <v>      -0.41789494      -0.24127175       0.00000000 </v>
   <v>      -0.00000001      -0.48254351      -0.00000000 </v>
   <v>       0.41789492      -0.24127175       0.00000000 </v>
   <v>       0.41789494       0.24127175       0.00000000 </v>
   <v>       0.00000001       0.48254351      -0.00000000 </v>
   <v>      -0.41789492       0.24127175      -0.00000000 </v>
   <v>      -0.41789494      -0.24127175      -0.00000000 </v>
   <v>      -0.00000001      -0.48254351       0.00000000 </v>
   <v>       0.41789492      -0.24127175      -0.00000000 </v>
   <v>       0.41789494       0.24127175       0.00000000 </v>
   <v>       0.00000001       0.48254351      -0.00000000 </v>
   <v>      -0.41789492       0.24127175      -0.00000000 </v>
   <v>      -0.41789494      -0.24127175      -0.00000000 </v>
   <v>      -0.00000001      -0.48254351      -0.00000000 </v>
   <v>       0.41789492      -0.24127175       0.00000000 </v>
   <v>       0.41789494       0.24127175      -0.00000000 </v>
   <v>       0.00000001       0.48254351      -0.00000000 </v>
   <v>      -0.41789492       0.24127175      -0.00000000 </v>
   <v>      -0.41789494      -0.24127175      -0.00000000 </v>
   <v>      -0.00000001      -0.48254351      -0.00000000 </v>
   <v>       0.41789492      -0.24127175       0.00000000 </v>
   <v>       0.41789494       0.24127175       0.00000000 </v>
   <v>       0.00000001       0.48254351      -0.00000000 </v>
   <v>      -0.41789492       0.24127175      -0.00000000 </v>
   <v>      -0.41789494      -0.24127175      -0.00000000 </v>
   <v>      -0.00000001      -0.48254351      -0.00000000 </v>
   <v>       0.41789492      -0.24127175      -0.00000000 </v>
   <v>       0.41789494       0.24127175       0.00000000 </v>
   <v>       0.00000001       0.48254351      -0.00000000 </v>
   <v>      -0.41789492       0.24127175       0.00000000 </v>
   <v>      -0.41789494      -0.24127175      -0.00000000 </v>
   <v>      -0.00000001      -0.48254351      -0.00000000 </v>
   <v>       0.41789492      -0.24127175       0.00000000 </v>
   <v>       0.41789494       0.24127175      -0.00000000 </v>
   <v>       0.00000001       0.48254351      -0.00000000 </v>
   <v>      -0.41789492       0.24127175       0.00000000 </v>
   <v>      -0.41789494      -0.24127175       0.00000000 </v>
   <v>      -0.00000001      -0.48254351      -0.00000000 </v>
   <v>       0.41789492      -0.24127175       0.00000000 </v>
   <v>       0.41789494       0.24127175       0.00000000 </v>
   <v>       0.00000001       0.48254351      -0.00000000 </v>
   <v>      -0.41789492       0.24127175      -0.00000000 </v>
   <v>      -0.41789494      -0.24127175      -0.00000000 </v>
   <v>      -0.00000001      -0.48254351      -0.00000000 </v>
   <v>       0.41789492      -0.24127175       0.00000000 </v>
   <v>       0.41789494       0.24127175       0.00000000 </v>
   <v>       0.00000001       0.48254351      -0.00000000 </v>
   <v>      -0.41789492       0.24127175       0.00000000 </v>
   <v>      -0.41789494      -0.24127175      -0.00000000 </v>
   <v>      -0.00000001      -0.48254351      -0.00000000 </v>
   <v>       0.41789492      -0.24127175       0.00000000 </v>
   <v>       0.41789494       0.24127175      -0.00000000 </v>
   <v>       0.00000001       0.48254351      -0.00000000 </v>
   <v>      -0.41789492       0.24127175       0.00000000 </v>
   <v>      -0.41789494      -0.24127175       0.00000000 </v>
   <v>      -0.00000001      -0.48254351      -0.00000000 </v>
   <v>       0.41789492      -0.24127175       0.00000000 </v>
   <v>       0.41789494       0.24127175       0.00000000 </v>
   <v>       0.00000001       0.48254351      -0.00000000 </v>
   <v>      -0.41789492       0.24127175       0.00000000 </v>
   <v>      -0.41789494      -0.24127175      -0.00000000 </v>
   <v>      -0.00000001      -0.48254351      -0.00000000 </v>
   <v>       0.41789492      -0.24127175      -0.00000000 </v>
   <v>       0.41789494       0.24127175       0.00000000 </v>
   <v>       0.00000001       0.48254351      -0.00000000 </v>
   <v>      -0.41789492       0.24127175      -0.00000000 </v>
   <v>      -0.41789494      -0.24127175      -0.00000000 </v>
   <v>      -0.00000001      -0.48254351      -0.00000000 </v>
   <v>       0.41789492      -0.24127175       0.00000000 </v>
   <v>       0.41789494       0.24127175      -0.00000000 </v>
   <v>       0.00000001       0.48254351      -0.00000000 </v>
   <v>      -0.41789492       0.24127175      -0.00000000 </v>
   <v>      -0.41789494      -0.24127175      -0.00000000 </v>
   <v>      -0.00000001      -0.48254351      -0.00000000 </v>
   <v>       0.41789492      -0.24127175       0.00000000 </v>
   <v>       0.41789494       0.24127175       0.00000000 </v>
   <v>       0.00000001       0.48254351      -0.00000000 </v>
   <v>      -0.41789492       0.24127175      -0.00000000 </v>
   <v>      -0.41789494      -0.24127175      -0.00000000 </v>
   <v>      -0.00000001      -0.48254351      -0.00000000 </v>
   <v>       0.41789492      -0.24127175       0.00000000 </v>
   <v>       0.41789494       0.24127175       0.00000000 </v>
   <v>       0.00000001       0.48254351      -0.00000000 </v>
   <v>      -0.41789492       0.24127175      -0.00000000 </v>
   <v>      -0.41789494      -0.24127175      -0.00000000 </v>
   <v>      -0.00000001      -0.48254351      -0.00000000 </v>
   <v>       0.41789492      -0.24127175       0.00000000 </v>
   <v>       0.41789494       0.24127175      -0.00000000 </v>
   <v>       0.00000001       0.48254351      -0.00000000 </v>
   <v>      -0.41789492       0.24127175       0.00000000 </v>
   <v>      -0.41789494      -0.24127175      -0.00000000 </v>
   <v>      -0.00000001      -0.48254351      -0.00000000 </v>
   <v>       0.41789492      -0.24127175       0.00000000 </v>
   <v>       0.41789494       0.24127175      -0.00000000 </v>
   <v>       0.00000001       0.48254351      -0.00000000 </v>
   <v>      -0.41789492       0.24127175      -0.00000000 </v>
   <v>      -0.41789494      -0.24127175      -0.00000000 </v>
   <v>      -0.00000001      -0.48254351      -0.00000000 </v>
   <v>       0.41789492      -0.24127175      -0.00000000 </v>
   <v>       0.41789494       0.24127175       0.00000000 </v>
   <v>       0.00000001       0.48254351       0.00000000 </v>
   <v>      -0.41789492       0.24127175      -0.00000000 </v>
   <v>      -0.41789494      -0.24127175      -0.00000000 </v>
   <v>      -0.00000001      -0.48254351      -0.00000000 </v>
   <v>       0.41789492      -0.24127175       0.00000000 </v>
   <v>       0.41789494       0.24127175      -0.00000000 </v>
   <v>       0.00000001       0.48254351      -0.00000000 </v>
   <v>      -0.41789492       0.24127175       0.00000000 </v>
   <v>      -0.41789494      -0.24127175       0.00000000 </v>
   <v>      -0.00000001      -0.48254351      -0.00000000 </v>
   <v>       0.41789492      -0.24127175       0.00000000 </v>
   <v>       0.41789494       0.24127175       0.00000000 </v>
   <v>       0.00000001       0.48254351      -0.00000000 </v>
   <v>      -0.41789492       0.24127175      -0.00000000 </v>
   <v>      -0.41789494      -0.24127175      -0.00000000 </v>
   <v>      -0.00000000       0.00000000      -0.00000000 </v>
   <v>      -0.00000000       0.00000000      -0.00000000 </v>
   <v>      -0.00000000       0.00000000       0.00000000 </v>
   <v>      -0.00000000       0.00000000      -0.00000000 </v>
   <v>      -0.00000000       0.00000000       0.00000000 </v>
   <v>      -0.00000000       0.00000000       0.00000000 </v>
   <v>      -0.00000000       0.00000000      -0.00000000 </v>
   <v>      -0.00000000       0.00000000       0.00000000 </v>
   <v>      -0.00000000       0.00000000       0.00000000 </v>
   <v>      -0.00000000       0.00000000      -0.00000000 </v>
   <v>      -0.00000000       0.00000000      -0.00000000 </v>
   <v>      -0.00000000       0.00000000       0.00000000 </v>
   <v>      -0.00000000       0.00000000       0.00000000 </v>
   <v>      -0.00000000       0.00000000      -0.00000000 </v>
   <v>      -0.00000000       0.00000000       0.00000000 </v>
   <v>      -0.00000000       0.00000000      -0.00000000 </v>
   <v>      -0.00000000       0.00000000      -0.00000000 </v>
   <v>      -0.00000000       0.00000000      -0.00000000 </v>
   <v>      -0.00000000       0.00000000      -0.00000000 </v>
   <v>      -0.00000000       0.00000000      -0.00000000 </v>
   <v>      -0.00000000       0.00000000      -0.00000000 </v>
   <v>      -0.00000000       0.00000000       0.00000000 </v>
   <v>      -0.00000000       0.00000000      -0.00000000 </v>
   <v>      -0.00000000       0.00000000      -0.00000000 </v>
   <v>      -0.00000000       0.00000000      -0.00000000 </v>
   <v>      -0.00000000       0.00000000       0.00000000 </v>
[...]
       <r>     3.9746     0.0000  1296.0000 </r>
       <r>     4.0851     0.0000  1296.0000 </r>
       <r>     4.1956     0.0000  1296.0000 </r>
       <r>     4.3060     0.0000  1296.0000 </r>
       <r>     4.4165     0.0000  1296.0000 </r>
       <r>     4.5270     0.0000  1296.0000 </r>
       <r>     4.6375     0.0000  1296.0000 </r>
       <r>     4.7480     0.0000  1296.0000 </r>
       <r>     4.8584     0.0000  1296.0000 </r>
       <r>     4.9689     0.0000  1296.0000 </r>
       <r>     5.0794     0.0000  1296.0000 </r>
       <r>     5.1899     0.0000  1296.0000 </r>
       <r>     5.3004     0.0000  1296.0000 </r>
       <r>     5.4108     0.0000  1296.0000 </r>
       <r>     5.5213     0.0000  1296.0000 </r>
       <r>     5.6318     0.0000  1296.0000 </r>
       <r>     5.7423     0.0000  1296.0000 </r>
       <r>     5.8528     0.0000  1296.0000 </r>
       <r>     5.9632     0.0000  1296.0000 </r>
       <r>     6.0737     0.0000  1296.0000 </r>
       <r>     6.1842     0.0000  1296.0000 </r>
       <r>     6.2947     0.0000  1296.0000 </r>
       <r>     6.4052     0.0000  1296.0000 </r>
       <r>     6.5156     0.0000  1296.0000 </r>
       <r>     6.6261     0.0000  1296.0000 </r>
       <r>     6.7366     0.1266  1296.0140 </r>
       <r>     6.8471     1.7931  1296.2121 </r>
       <r>     6.9576     3.6209  1296.6121 </r>
       <r>     7.0680     4.8719  1297.1504 </r>
       <r>     7.1785     5.9161  1297.8040 </r>
       <r>     7.2890     7.3417  1298.6151 </r>
       <r>     7.3995     7.9933  1299.4982 </r>
       <r>     7.5100     9.4976  1300.5475 </r>
       <r>     7.6204    10.5257  1301.7104 </r>
       <r>     7.7309    11.5878  1302.9906 </r>
       <r>     7.8414    12.4085  1304.3615 </r>
       <r>     7.9519    14.3933  1305.9517 </r>
       <r>     8.0624    15.0601  1307.6155 </r>
       <r>     8.1728    16.7947  1309.4710 </r>
       <r>     8.2833    17.9798  1311.4574 </r>
       <r>     8.3938    20.5570  1313.7285 </r>
       <r>     8.5043    20.4068  1315.9830 </r>
       <r>     8.6148    25.3823  1318.7873 </r>
       <r>     8.7252    24.8748  1321.5354 </r>
       <r>     8.8357    32.6441  1325.1420 </r>
       <r>     8.9462    32.7248  1328.7574 </r>
       <r>     9.0567    33.4936  1332.4578 </r>
       <r>     9.1672    32.8555  1336.0876 </r>
       <r>     9.2776    31.8972  1339.6116 </r>
       <r>     9.3881    30.7758  1343.0118 </r>
       <r>     9.4986    31.9036  1346.5365 </r>
       <r>     9.6091    34.8137  1350.3827 </r>
       <r>     9.7196    44.9341  1355.3470 </r>
       <r>     9.8300    75.4699  1363.6849 </r>
       <r>     9.9405   121.9095  1377.1534 </r>
       <r>    10.0510   165.0819  1395.3917 </r>
       <r>    10.1615   138.9582  1410.7438 </r>
       <r>    10.2720   121.0306  1424.1152 </r>
       <r>    10.3824   130.8126  1438.5674 </r>
       <r>    10.4929   172.3433  1457.6078 </r>
       <r>    10.6034   251.6270  1485.4076 </r>
       <r>    10.7139   207.7037  1508.3546 </r>
       <r>    10.8244   157.8800  1525.7972 </r>
       <r>    10.9348   110.4483  1537.9995 </r>
       <r>    11.0453   106.7570  1549.7940 </r>
       <r>    11.1558    99.1150  1560.7442 </r>
       <r>    11.2663    57.5914  1567.1069 </r>
       <r>    11.3768     8.0568  1567.9970 </r>
       <r>    11.4872     0.0268  1568.0000 </r>
       <r>    11.5977     0.0000  1568.0000 </r>
       <r>    11.7082     0.0000  1568.0000 </r>
       <r>    11.8187     0.0000  1568.0000 </r>
       <r>    11.9292     0.0000  1568.0000 </r>
       <r>    12.0396     0.0000  1568.0000 </r>
       <r>    12.1501     0.0000  1568.0000 </r>
       <r>    12.2606     0.0000  1568.0000 </r>
       <r>    12.3711     0.0000  1568.0000 </r>
       <r>    12.4816     0.0000  1568.0000 </r>
       <r>    12.5920     0.0000  1568.0000 </r>
       <r>    12.7025     0.0000  1568.0000 </r>
       <r>    12.8130     0.0000  1568.0000 </r>
      </set>
     </set>
    </array>
   </total>
  </dos>
 </calculation>
 <structure name="finalpos" >
  <crystal>
   <varray name="basis" >
    <v>      14.99190030       0.00000000       0.00000000 </v>
    <v>      -7.49594983      12.98336669       0.00000000 </v>
    <v>       0.00000030       0.00000052      16.37160030 </v>
   </varray>
   <i name="volume">   3186.65568995 </i>
   <varray name="rec_basis" >
    <v>       0.06670268       0.03851081      -0.00000000 </v>
    <v>       0.00000000       0.07702162      -0.00000000 </v>
    <v>       0.00000000       0.00000000       0.06108138 </v>
   </varray>
  </crystal>
  <varray name="positions" >
   <v>       0.06921667       0.13843334       0.00000000 </v>
   <v>       0.26411666       0.06921667       0.11111111 </v>
   <v>       0.19489999       0.26411666       0.22222222 </v>
   <v>       0.26411666       0.19489999       0.00000000 </v>
   <v>       0.06921667       0.26411666       0.11111111 </v>
   <v>       0.13843334       0.06921667       0.22222222 </v>
   <v>       0.06921667       0.13843334       0.33333333 </v>
   <v>       0.26411666       0.06921667       0.44444444 </v>
   <v>       0.19489999       0.26411666       0.55555556 </v>
   <v>       0.26411666       0.19489999       0.33333333 </v>
   <v>       0.06921667       0.26411666       0.44444444 </v>
   <v>       0.13843334       0.06921667       0.55555556 </v>
   <v>       0.06921667       0.13843334       0.66666667 </v>
   <v>       0.26411666       0.06921667       0.77777778 </v>
   <v>       0.19489999       0.26411666       0.88888889 </v>
   <v>       0.26411666       0.19489999       0.66666667 </v>
   <v>       0.06921667       0.26411666       0.77777778 </v>
   <v>       0.13843334       0.06921667       0.88888889 </v>
   <v>       0.06921667       0.47176667       0.00000000 </v>
   <v>       0.26411666       0.40255000       0.11111111 </v>
   <v>       0.19489999       0.59745000       0.22222222 </v>
   <v>       0.26411666       0.52823333       0.00000000 </v>
   <v>       0.06921667       0.59745000       0.11111111 </v>
   <v>       0.13843334       0.40255000       0.22222222 </v>
   <v>       0.06921667       0.47176667       0.33333333 </v>
   <v>       0.26411666       0.40255000       0.44444444 </v>
   <v>       0.19489999       0.59745000       0.55555556 </v>
   <v>       0.26411666       0.52823333       0.33333333 </v>
   <v>       0.06921667       0.59745000       0.44444444 </v>
   <v>       0.13843334       0.40255000       0.55555556 </v>
   <v>       0.06921667       0.47176667       0.66666667 </v>
   <v>       0.26411666       0.40255000       0.77777778 </v>
   <v>       0.19489999       0.59745000       0.88888889 </v>
   <v>       0.26411666       0.52823333       0.66666667 </v>
   <v>       0.06921667       0.59745000       0.77777778 </v>
   <v>       0.13843334       0.40255000       0.88888889 </v>
   <v>       0.06921667       0.80510001       0.00000000 </v>
   <v>       0.26411666       0.73588334       0.11111111 </v>
   <v>       0.19489999       0.93078333       0.22222222 </v>
   <v>       0.26411666       0.86156666       0.00000000 </v>
   <v>       0.06921667       0.93078333       0.11111111 </v>
   <v>       0.13843334       0.73588334       0.22222222 </v>
   <v>       0.06921667       0.80510001       0.33333333 </v>
   <v>       0.26411666       0.73588334       0.44444444 </v>
   <v>       0.19489999       0.93078333       0.55555556 </v>
   <v>       0.26411666       0.86156666       0.33333333 </v>
   <v>       0.06921667       0.93078333       0.44444444 </v>
   <v>       0.13843334       0.73588334       0.55555556 </v>
   <v>       0.06921667       0.80510001       0.66666667 </v>
   <v>       0.26411666       0.73588334       0.77777778 </v>
   <v>       0.19489999       0.93078333       0.88888889 </v>
   <v>       0.26411666       0.86156666       0.66666667 </v>
   <v>       0.06921667       0.93078333       0.77777778 </v>
   <v>       0.13843334       0.73588334       0.88888889 </v>
   <v>       0.40255000       0.13843334       0.00000000 </v>
   <v>       0.59745000       0.06921667       0.11111111 </v>
   <v>       0.52823333       0.26411666       0.22222222 </v>
   <v>       0.59745000       0.19489999       0.00000000 </v>
   <v>       0.40255000       0.26411666       0.11111111 </v>
   <v>       0.47176667       0.06921667       0.22222222 </v>
   <v>       0.40255000       0.13843334       0.33333333 </v>
   <v>       0.59745000       0.06921667       0.44444444 </v>
   <v>       0.52823333       0.26411666       0.55555556 </v>
   <v>       0.59745000       0.19489999       0.33333333 </v>
   <v>       0.40255000       0.26411666       0.44444444 </v>
   <v>       0.47176667       0.06921667       0.55555556 </v>
   <v>       0.40255000       0.13843334       0.66666667 </v>
   <v>       0.59745000       0.06921667       0.77777778 </v>
   <v>       0.52823333       0.26411666       0.88888889 </v>
   <v>       0.59745000       0.19489999       0.66666667 </v>
   <v>       0.40255000       0.26411666       0.77777778 </v>
   <v>       0.47176667       0.06921667       0.88888889 </v>
   <v>       0.40255000       0.47176667       0.00000000 </v>
   <v>       0.59745000       0.40255000       0.11111111 </v>
   <v>       0.52823333       0.59745000       0.22222222 </v>
   <v>       0.59745000       0.52823333       0.00000000 </v>
   <v>       0.40255000       0.59745000       0.11111111 </v>
   <v>       0.47176667       0.40255000       0.22222222 </v>
   <v>       0.40255000       0.47176667       0.33333333 </v>
   <v>       0.59745000       0.40255000       0.44444444 </v>
   <v>       0.52823333       0.59745000       0.55555556 </v>
   <v>       0.59745000       0.52823333       0.33333333 </v>
   <v>       0.40255000       0.59745000       0.44444444 </v>
   <v>       0.47176667       0.40255000       0.55555556 </v>
   <v>       0.40255000       0.47176667       0.66666667 </v>
   <v>       0.59745000       0.40255000       0.77777778 </v>
   <v>       0.52823333       0.59745000       0.88888889 </v>
   <v>       0.59745000       0.52823333       0.66666667 </v>
   <v>       0.40255000       0.59745000       0.77777778 </v>
   <v>       0.47176667       0.40255000       0.88888889 </v>
   <v>       0.40255000       0.80510001       0.00000000 </v>
   <v>       0.59745000       0.73588334       0.11111111 </v>
   <v>       0.52823333       0.93078333       0.22222222 </v>
   <v>       0.59745000       0.86156666       0.00000000 </v>
   <v>       0.40255000       0.93078333       0.11111111 </v>
   <v>       0.47176667       0.73588334       0.22222222 </v>
   <v>       0.40255000       0.80510001       0.33333333 </v>
   <v>       0.59745000       0.73588334       0.44444444 </v>
   <v>       0.52823333       0.93078333       0.55555556 </v>
   <v>       0.59745000       0.86156666       0.33333333 </v>
   <v>       0.40255000       0.93078333       0.44444444 </v>
   <v>       0.47176667       0.73588334       0.55555556 </v>
   <v>       0.40255000       0.80510001       0.66666667 </v>
   <v>       0.59745000       0.73588334       0.77777778 </v>
   <v>       0.52823333       0.93078333       0.88888889 </v>
   <v>       0.59745000       0.86156666       0.66666667 </v>
   <v>       0.40255000       0.93078333       0.77777778 </v>
   <v>       0.47176667       0.73588334       0.88888889 </v>
   <v>       0.73588334       0.13843334       0.00000000 </v>
   <v>       0.93078333       0.06921667       0.11111111 </v>
   <v>       0.86156666       0.26411666       0.22222222 </v>
   <v>       0.93078333       0.19489999       0.00000000 </v>
   <v>       0.73588334       0.26411666       0.11111111 </v>
   <v>       0.80510001       0.06921667       0.22222222 </v>
   <v>       0.73588334       0.13843334       0.33333333 </v>
   <v>       0.93078333       0.06921667       0.44444444 </v>
   <v>       0.86156666       0.26411666       0.55555556 </v>
   <v>       0.93078333       0.19489999       0.33333333 </v>
   <v>       0.73588334       0.26411666       0.44444444 </v>
   <v>       0.80510001       0.06921667       0.55555556 </v>
   <v>       0.73588334       0.13843334       0.66666667 </v>
   <v>       0.93078333       0.06921667       0.77777778 </v>
   <v>       0.86156666       0.26411666       0.88888889 </v>
   <v>       0.93078333       0.19489999       0.66666667 </v>
   <v>       0.73588334       0.26411666       0.77777778 </v>
   <v>       0.80510001       0.06921667       0.88888889 </v>
   <v>       0.73588334       0.47176667       0.00000000 </v>
   <v>       0.93078333       0.40255000       0.11111111 </v>
   <v>       0.86156666       0.59745000       0.22222222 </v>
   <v>       0.93078333       0.52823333       0.00000000 </v>
   <v>       0.73588334       0.59745000       0.11111111 </v>
   <v>       0.80510001       0.40255000       0.22222222 </v>
   <v>       0.73588334       0.47176667       0.33333333 </v>
   <v>       0.93078333       0.40255000       0.44444444 </v>
   <v>       0.86156666       0.59745000       0.55555556 </v>
   <v>       0.93078333       0.52823333       0.33333333 </v>
   <v>       0.73588334       0.59745000       0.44444444 </v>
   <v>       0.80510001       0.40255000       0.55555556 </v>
   <v>       0.73588334       0.47176667       0.66666667 </v>
   <v>       0.93078333       0.40255000       0.77777778 </v>
   <v>       0.86156666       0.59745000       0.88888889 </v>
   <v>       0.93078333       0.52823333       0.66666667 </v>
   <v>       0.73588334       0.59745000       0.77777778 </v>
   <v>       0.80510001       0.40255000       0.88888889 </v>
   <v>       0.73588334       0.80510001       0.00000000 </v>
   <v>       0.93078333       0.73588334       0.11111111 </v>
   <v>       0.86156666       0.93078333       0.22222222 </v>
   <v>       0.93078333       0.86156666       0.00000000 </v>
   <v>       0.73588334       0.93078333       0.11111111 </v>
   <v>       0.80510001       0.73588334       0.22222222 </v>
   <v>       0.73588334       0.80510001       0.33333333 </v>
   <v>       0.93078333       0.73588334       0.44444444 </v>
   <v>       0.86156666       0.93078333       0.55555556 </v>
   <v>       0.93078333       0.86156666       0.33333333 </v>
   <v>       0.73588334       0.93078333       0.44444444 </v>
   <v>       0.80510001       0.73588334       0.55555556 </v>
   <v>       0.73588334       0.80510001       0.66666667 </v>
   <v>       0.93078333       0.73588334       0.77777778 </v>
   <v>       0.86156666       0.93078333       0.88888889 </v>
   <v>       0.93078333       0.86156666       0.66666667 </v>
   <v>       0.73588334       0.93078333       0.77777778 </v>
   <v>       0.80510001       0.73588334       0.88888889 </v>
   <v>       0.16666667       0.00000000       0.16666667 </v>
   <v>       0.16666667       0.16666667       0.27777778 </v>
   <v>       0.00000000       0.16666667       0.05555556 </v>
   <v>       0.16666667       0.00000000       0.50000000 </v>
   <v>       0.16666667       0.16666667       0.61111111 </v>
   <v>       0.00000000       0.16666667       0.38888889 </v>
   <v>       0.16666667       0.00000000       0.83333333 </v>
   <v>       0.16666667       0.16666667       0.94444444 </v>
   <v>       0.00000000       0.16666667       0.72222222 </v>
   <v>       0.16666667       0.33333333       0.16666667 </v>
   <v>       0.16666667       0.50000000       0.27777778 </v>
   <v>       0.00000000       0.50000000       0.05555556 </v>
   <v>       0.16666667       0.33333333       0.50000000 </v>
   <v>       0.16666667       0.50000000       0.61111111 </v>
   <v>       0.00000000       0.50000000       0.38888889 </v>
   <v>       0.16666667       0.33333333       0.83333333 </v>
   <v>       0.16666667       0.50000000       0.94444444 </v>
   <v>       0.00000000       0.50000000       0.72222222 </v>
   <v>       0.16666667       0.66666667       0.16666667 </v>
   <v>       0.16666667       0.83333333       0.27777778 </v>
   <v>       0.00000000       0.83333333       0.05555556 </v>
   <v>       0.16666667       0.66666667       0.50000000 </v>
   <v>       0.16666667       0.83333333       0.61111111 </v>
   <v>       0.00000000       0.83333333       0.38888889 </v>
   <v>       0.16666667       0.66666667       0.83333333 </v>
   <v>       0.16666667       0.83333333       0.94444444 </v>
   <v>       0.00000000       0.83333333       0.72222222 </v>
   <v>       0.50000000       0.00000000       0.16666667 </v>
   <v>       0.50000000       0.16666667       0.27777778 </v>
   <v>       0.33333333       0.16666667       0.05555556 </v>
   <v>       0.50000000       0.00000000       0.50000000 </v>
   <v>       0.50000000       0.16666667       0.61111111 </v>
   <v>       0.33333333       0.16666667       0.38888889 </v>
   <v>       0.50000000       0.00000000       0.83333333 </v>
   <v>       0.50000000       0.16666667       0.94444444 </v>
   <v>       0.33333333       0.16666667       0.72222222 </v>
   <v>       0.50000000       0.33333333       0.16666667 </v>
   <v>       0.50000000       0.50000000       0.27777778 </v>
   <v>       0.33333333       0.50000000       0.05555556 </v>
   <v>       0.50000000       0.33333333       0.50000000 </v>
   <v>       0.50000000       0.50000000       0.61111111 </v>
   <v>       0.33333333       0.50000000       0.38888889 </v>
   <v>       0.50000000       0.33333333       0.83333333 </v>
   <v>       0.50000000       0.50000000       0.94444444 </v>
   <v>       0.33333333       0.50000000       0.72222222 </v>
   <v>       0.50000000       0.66666667       0.16666667 </v>
   <v>       0.50000000       0.83333333       0.27777778 </v>
   <v>       0.33333333       0.83333333       0.05555556 </v>
   <v>       0.50000000       0.66666667       0.50000000 </v>
   <v>       0.50000000       0.83333333       0.61111111 </v>
   <v>       0.33333333       0.83333333       0.38888889 </v>
   <v>       0.50000000       0.66666667       0.83333333 </v>
   <v>       0.50000000       0.83333333       0.94444444 </v>
   <v>       0.33333333       0.83333333       0.72222222 </v>
   <v>       0.83333333       0.00000000       0.16666667 </v>
   <v>       0.83333333       0.16666667       0.27777778 </v>
   <v>       0.66666667       0.16666667       0.05555556 </v>
   <v>       0.83333333       0.00000000       0.50000000 </v>
   <v>       0.83333333       0.16666667       0.61111111 </v>
   <v>       0.66666667       0.16666667       0.38888889 </v>
   <v>       0.83333333       0.00000000       0.83333333 </v>
   <v>       0.83333333       0.16666667       0.94444444 </v>
   <v>       0.66666667       0.16666667       0.72222222 </v>
   <v>       0.83333333       0.33333333       0.16666667 </v>
   <v>       0.83333333       0.50000000       0.27777778 </v>
   <v>       0.66666667       0.50000000       0.05555556 </v>
   <v>       0.83333333       0.33333333       0.50000000 </v>
   <v>       0.83333333       0.50000000       0.61111111 </v>
   <v>       0.66666667       0.50000000       0.38888889 </v>
   <v>       0.83333333       0.33333333       0.83333333 </v>
   <v>       0.83333333       0.50000000       0.94444444 </v>
   <v>       0.66666667       0.50000000       0.72222222 </v>
   <v>       0.83333333       0.66666667       0.16666667 </v>
   <v>       0.83333333       0.83333333       0.27777778 </v>
   <v>       0.66666667       0.83333333       0.05555556 </v>
   <v>       0.83333333       0.66666667       0.50000000 </v>
   <v>       0.83333333       0.83333333       0.61111111 </v>
   <v>       0.66666667       0.83333333       0.38888889 </v>
   <v>       0.83333333       0.66666667       0.83333333 </v>
   <v>       0.83333333       0.83333333       0.94444444 </v>
   <v>       0.66666667       0.83333333       0.72222222 </v>
  </varray>
 </structure>
</modeling>
